Title="Fields"
Variables="X""Y""Velocity""Phi""Effective Viscosity""Dynamic Viscosity""Density""Eddy Viscosity""K""Omega""S""F1SST""distance""GEN"
Zone I=102 J=102 F=POINT
   -1.253322E-02	    6.136627E-05	    0.000000E+00	   -1.000000E+00	    1.200000E-02	    1.200000E-02	    8.750000E+02	    0.000000E+00	    0.000000E+00	    2.775790E+10	    0.000000E+00	    1.000000E+00	    0.000000E+00	    0.000000E+00	
   -1.253198E-02	    6.888258E-05	    0.000000E+00	   -1.000000E+00	    1.200000E-02	    1.200000E-02	    8.750000E+02	    0.000000E+00	    0.000000E+00	    2.775790E+10	    0.000000E+00	    1.000000E+00	    0.000000E+00	    0.000000E+00	
   -1.252903E-02	    8.675968E-05	    0.000000E+00	   -1.000000E+00	    1.200000E-02	    1.200000E-02	    8.750000E+02	    0.000000E+00	    0.000000E+00	    1.749731E+10	    0.000000E+00	    1.000000E+00	    0.000000E+00	    0.000000E+00	
   -1.252530E-02	    1.091687E-04	    0.000000E+00	   -1.000000E+00	    1.200000E-02	    1.200000E-02	    8.750000E+02	    0.000000E+00	    0.000000E+00	    1.105128E+10	    0.000000E+00	    1.000000E+00	    0.000000E+00	    0.000000E+00	
   -1.252058E-02	    1.371453E-04	    0.000000E+00	   -1.000000E+00	    1.200000E-02	    1.200000E-02	    8.750000E+02	    0.000000E+00	    0.000000E+00	    7.002456E+09	    0.000000E+00	    1.000000E+00	    0.000000E+00	    0.000000E+00	
   -1.251462E-02	    1.719101E-04	    0.000000E+00	   -1.000000E+00	    1.200000E-02	    1.200000E-02	    8.750000E+02	    0.000000E+00	    0.000000E+00	    4.456691E+09	    0.000000E+00	    1.000000E+00	    0.000000E+00	    0.000000E+00	
   -1.250712E-02	    2.148841E-04	    0.000000E+00	   -1.000000E+00	    1.200000E-02	    1.200000E-02	    8.750000E+02	    0.000000E+00	    0.000000E+00	    2.852404E+09	    0.000000E+00	    1.000000E+00	    0.000000E+00	    0.000000E+00	
   -1.249770E-02	    2.676969E-04	    0.000000E+00	   -1.000000E+00	    1.200000E-02	    1.200000E-02	    8.750000E+02	    0.000000E+00	    0.000000E+00	    1.837969E+09	    0.000000E+00	    1.000000E+00	    0.000000E+00	    0.000000E+00	
   -1.248587E-02	    3.321886E-04	    0.000000E+00	   -1.000000E+00	    1.200000E-02	    1.200000E-02	    8.750000E+02	    0.000000E+00	    0.000000E+00	    1.193608E+09	    0.000000E+00	    1.000000E+00	    0.000000E+00	    0.000000E+00	
   -1.247107E-02	    4.104005E-04	    0.000000E+00	   -1.000000E+00	    1.200000E-02	    1.200000E-02	    8.750000E+02	    0.000000E+00	    0.000000E+00	    7.820296E+08	    0.000000E+00	    1.000000E+00	    0.000000E+00	    0.000000E+00	
   -1.245258E-02	    5.045529E-04	    0.000000E+00	   -1.000000E+00	    1.200000E-02	    1.200000E-02	    8.750000E+02	    0.000000E+00	    0.000000E+00	    5.174100E+08	    0.000000E+00	    1.000000E+00	    0.000000E+00	    0.000000E+00	
   -1.242952E-02	    6.170076E-04	    0.000000E+00	   -1.000000E+00	    1.200000E-02	    1.200000E-02	    8.750000E+02	    0.000000E+00	    0.000000E+00	    3.460018E+08	    0.000000E+00	    1.000000E+00	    0.000000E+00	    0.000000E+00	
   -1.240084E-02	    7.502120E-04	    0.000000E+00	   -1.000000E+00	    1.200000E-02	    1.200000E-02	    8.750000E+02	    0.000000E+00	    0.000000E+00	    2.340478E+08	    0.000000E+00	    1.000000E+00	    0.000000E+00	    0.000000E+00	
   -1.236523E-02	    9.066253E-04	    0.000000E+00	   -1.000000E+00	    1.200000E-02	    1.200000E-02	    8.750000E+02	    0.000000E+00	    0.000000E+00	    1.602626E+08	    0.000000E+00	    1.000000E+00	    0.000000E+00	    0.000000E+00	
   -1.232118E-02	    1.088624E-03	    0.000000E+00	   -1.000000E+00	    1.200000E-02	    1.200000E-02	    8.750000E+02	    0.000000E+00	    0.000000E+00	    1.111604E+08	    0.000000E+00	    1.000000E+00	    0.000000E+00	    0.000000E+00	
   -1.226686E-02	    1.298389E-03	    0.000000E+00	   -1.000000E+00	    1.200000E-02	    1.200000E-02	    8.750000E+02	    0.000000E+00	    0.000000E+00	    7.814785E+07	    0.000000E+00	    1.000000E+00	    0.000000E+00	    0.000000E+00	
   -1.220017E-02	    1.537779E-03	    0.000000E+00	   -1.000000E+00	    1.200000E-02	    1.200000E-02	    8.750000E+02	    0.000000E+00	    0.000000E+00	    5.571378E+07	    0.000000E+00	    1.000000E+00	    0.000000E+00	    0.000000E+00	
   -1.211871E-02	    1.808188E-03	    0.000000E+00	   -1.000000E+00	    1.200000E-02	    1.200000E-02	    8.750000E+02	    0.000000E+00	    0.000000E+00	    4.029857E+07	    0.000000E+00	    1.000000E+00	    0.000000E+00	    0.000000E+00	
   -1.201981E-02	    2.110407E-03	    0.000000E+00	   -1.000000E+00	    1.200000E-02	    1.200000E-02	    8.750000E+02	    0.000000E+00	    0.000000E+00	    2.958519E+07	    0.000000E+00	    1.000000E+00	    0.000000E+00	    0.000000E+00	
   -1.190061E-02	    2.444478E-03	    0.000000E+00	   -1.000000E+00	    1.200000E-02	    1.200000E-02	    8.750000E+02	    0.000000E+00	    0.000000E+00	    2.205299E+07	    0.000000E+00	    1.000000E+00	    0.000000E+00	    0.000000E+00	
   -1.175811E-02	    2.809580E-03	    0.000000E+00	   -1.000000E+00	    1.200000E-02	    1.200000E-02	    8.750000E+02	    0.000000E+00	    0.000000E+00	    1.669525E+07	    0.000000E+00	    1.000000E+00	    0.000000E+00	    0.000000E+00	
   -1.158931E-02	    3.203933E-03	    0.000000E+00	   -1.000000E+00	    1.200000E-02	    1.200000E-02	    8.750000E+02	    0.000000E+00	    0.000000E+00	    1.283949E+07	    0.000000E+00	    1.000000E+00	    0.000000E+00	    0.000000E+00	
   -1.139138E-02	    3.624749E-03	    0.000000E+00	   -1.000000E+00	    1.200000E-02	    1.200000E-02	    8.750000E+02	    0.000000E+00	    0.000000E+00	    1.003229E+07	    0.000000E+00	    1.000000E+00	    0.000000E+00	    0.000000E+00	
   -1.116183E-02	    4.068245E-03	    0.000000E+00	   -1.000000E+00	    1.200000E-02	    1.200000E-02	    8.750000E+02	    0.000000E+00	    0.000000E+00	    7.964997E+06	    0.000000E+00	    1.000000E+00	    0.000000E+00	    0.000000E+00	
   -1.089872E-02	    4.529708E-03	    0.000000E+00	   -1.000000E+00	    1.200000E-02	    1.200000E-02	    8.750000E+02	    0.000000E+00	    0.000000E+00	    6.425469E+06	    0.000000E+00	    1.000000E+00	    0.000000E+00	    0.000000E+00	
   -1.060083E-02	    5.003644E-03	    0.000000E+00	   -1.000000E+00	    1.200000E-02	    1.200000E-02	    8.750000E+02	    0.000000E+00	    0.000000E+00	    5.266465E+06	    0.000000E+00	    1.000000E+00	    0.000000E+00	    0.000000E+00	
   -1.026783E-02	    5.483978E-03	    0.000000E+00	   -1.000000E+00	    1.200000E-02	    1.200000E-02	    8.750000E+02	    0.000000E+00	    0.000000E+00	    4.384782E+06	    0.000000E+00	    1.000000E+00	    0.000000E+00	    0.000000E+00	
   -9.900376E-03	    5.964312E-03	    0.000000E+00	   -1.000000E+00	    1.200000E-02	    1.200000E-02	    8.750000E+02	    0.000000E+00	    0.000000E+00	    3.707371E+06	    0.000000E+00	    1.000000E+00	    0.000000E+00	    0.000000E+00	
   -9.500190E-03	    6.438216E-03	    0.000000E+00	   -1.000000E+00	    1.200000E-02	    1.200000E-02	    8.750000E+02	    0.000000E+00	    0.000000E+00	    3.182016E+06	    0.000000E+00	    1.000000E+00	    0.000000E+00	    0.000000E+00	
   -9.069994E-03	    6.899520E-03	    0.000000E+00	   -1.000000E+00	    1.200000E-02	    1.200000E-02	    8.750000E+02	    0.000000E+00	    0.000000E+00	    2.771029E+06	    0.000000E+00	    1.000000E+00	    0.000000E+00	    0.000000E+00	
   -8.613420E-03	    7.342591E-03	    0.000000E+00	   -1.000000E+00	    1.200000E-02	    1.200000E-02	    8.750000E+02	    0.000000E+00	    0.000000E+00	    2.446943E+06	    0.000000E+00	    1.000000E+00	    0.000000E+00	    0.000000E+00	
   -8.134846E-03	    7.762562E-03	    0.000000E+00	   -1.000000E+00	    1.200000E-02	    1.200000E-02	    8.750000E+02	    0.000000E+00	    0.000000E+00	    2.189544E+06	    0.000000E+00	    1.000000E+00	    0.000000E+00	    0.000000E+00	
   -7.639176E-03	    8.155497E-03	    0.000000E+00	   -1.000000E+00	    1.200000E-02	    1.200000E-02	    8.750000E+02	    0.000000E+00	    0.000000E+00	    1.983817E+06	    0.000000E+00	    1.000000E+00	    0.000000E+00	    0.000000E+00	
   -7.131605E-03	    8.518485E-03	    0.000000E+00	   -1.000000E+00	    1.200000E-02	    1.200000E-02	    8.750000E+02	    0.000000E+00	    0.000000E+00	    1.818501E+06	    0.000000E+00	    1.000000E+00	    0.000000E+00	    0.000000E+00	
   -6.617384E-03	    8.849660E-03	    0.000000E+00	   -1.000000E+00	    1.200000E-02	    1.200000E-02	    8.750000E+02	    0.000000E+00	    0.000000E+00	    1.685069E+06	    0.000000E+00	    1.000000E+00	    0.000000E+00	    0.000000E+00	
   -6.101600E-03	    9.148151E-03	    0.000000E+00	   -1.000000E+00	    1.200000E-02	    1.200000E-02	    8.750000E+02	    0.000000E+00	    0.000000E+00	    1.577007E+06	    0.000000E+00	    1.000000E+00	    0.000000E+00	    0.000000E+00	
   -5.588999E-03	    9.413989E-03	    0.000000E+00	   -1.000000E+00	    1.200000E-02	    1.200000E-02	    8.750000E+02	    0.000000E+00	    0.000000E+00	    1.489289E+06	    0.000000E+00	    1.000000E+00	    0.000000E+00	    0.000000E+00	
   -5.083845E-03	    9.647970E-03	    0.000000E+00	   -1.000000E+00	    1.200000E-02	    1.200000E-02	    8.750000E+02	    0.000000E+00	    0.000000E+00	    1.418004E+06	    0.000000E+00	    1.000000E+00	    0.000000E+00	    0.000000E+00	
   -4.589836E-03	    9.851503E-03	    0.000000E+00	   -1.000000E+00	    1.200000E-02	    1.200000E-02	    8.750000E+02	    0.000000E+00	    0.000000E+00	    1.360080E+06	    0.000000E+00	    1.000000E+00	    0.000000E+00	    0.000000E+00	
   -4.110057E-03	    1.002646E-02	    0.000000E+00	   -1.000000E+00	    1.200000E-02	    1.200000E-02	    8.750000E+02	    0.000000E+00	    0.000000E+00	    1.313082E+06	    0.000000E+00	    1.000000E+00	    0.000000E+00	    0.000000E+00	
   -3.646976E-03	    1.017500E-02	    0.000000E+00	   -1.000000E+00	    1.200000E-02	    1.200000E-02	    8.750000E+02	    0.000000E+00	    0.000000E+00	    1.275065E+06	    0.000000E+00	    1.000000E+00	    0.000000E+00	    0.000000E+00	
   -3.202468E-03	    1.029950E-02	    0.000000E+00	   -1.000000E+00	    1.200000E-02	    1.200000E-02	    8.750000E+02	    0.000000E+00	    0.000000E+00	    1.244460E+06	    0.000000E+00	    1.000000E+00	    0.000000E+00	    0.000000E+00	
   -2.777863E-03	    1.040238E-02	    0.000000E+00	   -1.000000E+00	    1.200000E-02	    1.200000E-02	    8.750000E+02	    0.000000E+00	    0.000000E+00	    1.219995E+06	    0.000000E+00	    1.000000E+00	    0.000000E+00	    0.000000E+00	
   -2.374002E-03	    1.048605E-02	    0.000000E+00	   -1.000000E+00	    1.200000E-02	    1.200000E-02	    8.750000E+02	    0.000000E+00	    0.000000E+00	    1.200628E+06	    0.000000E+00	    1.000000E+00	    0.000000E+00	    0.000000E+00	
   -1.991308E-03	    1.055282E-02	    0.000000E+00	   -1.000000E+00	    1.200000E-02	    1.200000E-02	    8.750000E+02	    0.000000E+00	    0.000000E+00	    1.185500E+06	    0.000000E+00	    1.000000E+00	    0.000000E+00	    0.000000E+00	
   -1.629852E-03	    1.060489E-02	    0.000000E+00	   -1.000000E+00	    1.200000E-02	    1.200000E-02	    8.750000E+02	    0.000000E+00	    0.000000E+00	    1.173901E+06	    0.000000E+00	    1.000000E+00	    0.000000E+00	    0.000000E+00	
   -1.289416E-03	    1.064428E-02	    0.000000E+00	   -1.000000E+00	    1.200000E-02	    1.200000E-02	    8.750000E+02	    0.000000E+00	    0.000000E+00	    1.165239E+06	    0.000000E+00	    1.000000E+00	    0.000000E+00	    0.000000E+00	
   -9.695567E-04	    1.067284E-02	    0.000000E+00	   -1.000000E+00	    1.200000E-02	    1.200000E-02	    8.750000E+02	    0.000000E+00	    0.000000E+00	    1.159018E+06	    0.000000E+00	    1.000000E+00	    0.000000E+00	    0.000000E+00	
   -6.696566E-04	    1.069224E-02	    0.000000E+00	   -1.000000E+00	    1.200000E-02	    1.200000E-02	    8.750000E+02	    0.000000E+00	    0.000000E+00	    1.154822E+06	    0.000000E+00	    1.000000E+00	    0.000000E+00	    0.000000E+00	
   -3.889706E-04	    1.070395E-02	    0.000000E+00	   -1.000000E+00	    1.200000E-02	    1.200000E-02	    8.750000E+02	    0.000000E+00	    0.000000E+00	    1.152300E+06	    0.000000E+00	    1.000000E+00	    0.000000E+00	    0.000000E+00	
   -1.266653E-04	    1.070928E-02	    0.000000E+00	   -1.000000E+00	    1.200000E-02	    1.200000E-02	    8.750000E+02	    0.000000E+00	    0.000000E+00	    1.151155E+06	    0.000000E+00	    1.000000E+00	    0.000000E+00	    0.000000E+00	
    1.266653E-04	    1.070928E-02	    0.000000E+00	   -1.000000E+00	    1.200000E-02	    1.200000E-02	    8.750000E+02	    0.000000E+00	    0.000000E+00	    1.151155E+06	    0.000000E+00	    1.000000E+00	    0.000000E+00	    0.000000E+00	
    3.889706E-04	    1.070395E-02	    0.000000E+00	   -1.000000E+00	    1.200000E-02	    1.200000E-02	    8.750000E+02	    0.000000E+00	    0.000000E+00	    1.152300E+06	    0.000000E+00	    1.000000E+00	    0.000000E+00	    0.000000E+00	
    6.696566E-04	    1.069224E-02	    0.000000E+00	   -1.000000E+00	    1.200000E-02	    1.200000E-02	    8.750000E+02	    0.000000E+00	    0.000000E+00	    1.154822E+06	    0.000000E+00	    1.000000E+00	    0.000000E+00	    0.000000E+00	
    9.695567E-04	    1.067284E-02	    0.000000E+00	   -1.000000E+00	    1.200000E-02	    1.200000E-02	    8.750000E+02	    0.000000E+00	    0.000000E+00	    1.159018E+06	    0.000000E+00	    1.000000E+00	    0.000000E+00	    0.000000E+00	
    1.289416E-03	    1.064428E-02	    0.000000E+00	   -1.000000E+00	    1.200000E-02	    1.200000E-02	    8.750000E+02	    0.000000E+00	    0.000000E+00	    1.165239E+06	    0.000000E+00	    1.000000E+00	    0.000000E+00	    0.000000E+00	
    1.629852E-03	    1.060489E-02	    0.000000E+00	   -1.000000E+00	    1.200000E-02	    1.200000E-02	    8.750000E+02	    0.000000E+00	    0.000000E+00	    1.173901E+06	    0.000000E+00	    1.000000E+00	    0.000000E+00	    0.000000E+00	
    1.991308E-03	    1.055282E-02	    0.000000E+00	   -1.000000E+00	    1.200000E-02	    1.200000E-02	    8.750000E+02	    0.000000E+00	    0.000000E+00	    1.185500E+06	    0.000000E+00	    1.000000E+00	    0.000000E+00	    0.000000E+00	
    2.374002E-03	    1.048605E-02	    0.000000E+00	   -1.000000E+00	    1.200000E-02	    1.200000E-02	    8.750000E+02	    0.000000E+00	    0.000000E+00	    1.200628E+06	    0.000000E+00	    1.000000E+00	    0.000000E+00	    0.000000E+00	
    2.777863E-03	    1.040238E-02	    0.000000E+00	   -1.000000E+00	    1.200000E-02	    1.200000E-02	    8.750000E+02	    0.000000E+00	    0.000000E+00	    1.219995E+06	    0.000000E+00	    1.000000E+00	    0.000000E+00	    0.000000E+00	
    3.202468E-03	    1.029950E-02	    0.000000E+00	   -1.000000E+00	    1.200000E-02	    1.200000E-02	    8.750000E+02	    0.000000E+00	    0.000000E+00	    1.244460E+06	    0.000000E+00	    1.000000E+00	    0.000000E+00	    0.000000E+00	
    3.646976E-03	    1.017500E-02	    0.000000E+00	   -1.000000E+00	    1.200000E-02	    1.200000E-02	    8.750000E+02	    0.000000E+00	    0.000000E+00	    1.275065E+06	    0.000000E+00	    1.000000E+00	    0.000000E+00	    0.000000E+00	
    4.110057E-03	    1.002646E-02	    0.000000E+00	   -1.000000E+00	    1.200000E-02	    1.200000E-02	    8.750000E+02	    0.000000E+00	    0.000000E+00	    1.313082E+06	    0.000000E+00	    1.000000E+00	    0.000000E+00	    0.000000E+00	
    4.589836E-03	    9.851503E-03	    0.000000E+00	   -1.000000E+00	    1.200000E-02	    1.200000E-02	    8.750000E+02	    0.000000E+00	    0.000000E+00	    1.360080E+06	    0.000000E+00	    1.000000E+00	    0.000000E+00	    0.000000E+00	
    5.083845E-03	    9.647970E-03	    0.000000E+00	   -1.000000E+00	    1.200000E-02	    1.200000E-02	    8.750000E+02	    0.000000E+00	    0.000000E+00	    1.418004E+06	    0.000000E+00	    1.000000E+00	    0.000000E+00	    0.000000E+00	
    5.588999E-03	    9.413989E-03	    0.000000E+00	   -1.000000E+00	    1.200000E-02	    1.200000E-02	    8.750000E+02	    0.000000E+00	    0.000000E+00	    1.489289E+06	    0.000000E+00	    1.000000E+00	    0.000000E+00	    0.000000E+00	
    6.101600E-03	    9.148151E-03	    0.000000E+00	   -1.000000E+00	    1.200000E-02	    1.200000E-02	    8.750000E+02	    0.000000E+00	    0.000000E+00	    1.577007E+06	    0.000000E+00	    1.000000E+00	    0.000000E+00	    0.000000E+00	
    6.617384E-03	    8.849660E-03	    0.000000E+00	   -1.000000E+00	    1.200000E-02	    1.200000E-02	    8.750000E+02	    0.000000E+00	    0.000000E+00	    1.685069E+06	    0.000000E+00	    1.000000E+00	    0.000000E+00	    0.000000E+00	
    7.131605E-03	    8.518485E-03	    0.000000E+00	   -1.000000E+00	    1.200000E-02	    1.200000E-02	    8.750000E+02	    0.000000E+00	    0.000000E+00	    1.818501E+06	    0.000000E+00	    1.000000E+00	    0.000000E+00	    0.000000E+00	
    7.639176E-03	    8.155497E-03	    0.000000E+00	   -1.000000E+00	    1.200000E-02	    1.200000E-02	    8.750000E+02	    0.000000E+00	    0.000000E+00	    1.983817E+06	    0.000000E+00	    1.000000E+00	    0.000000E+00	    0.000000E+00	
    8.134846E-03	    7.762562E-03	    0.000000E+00	   -1.000000E+00	    1.200000E-02	    1.200000E-02	    8.750000E+02	    0.000000E+00	    0.000000E+00	    2.189544E+06	    0.000000E+00	    1.000000E+00	    0.000000E+00	    0.000000E+00	
    8.613420E-03	    7.342591E-03	    0.000000E+00	   -1.000000E+00	    1.200000E-02	    1.200000E-02	    8.750000E+02	    0.000000E+00	    0.000000E+00	    2.446943E+06	    0.000000E+00	    1.000000E+00	    0.000000E+00	    0.000000E+00	
    9.069994E-03	    6.899520E-03	    0.000000E+00	   -1.000000E+00	    1.200000E-02	    1.200000E-02	    8.750000E+02	    0.000000E+00	    0.000000E+00	    2.771029E+06	    0.000000E+00	    1.000000E+00	    0.000000E+00	    0.000000E+00	
    9.500190E-03	    6.438216E-03	    0.000000E+00	   -1.000000E+00	    1.200000E-02	    1.200000E-02	    8.750000E+02	    0.000000E+00	    0.000000E+00	    3.182016E+06	    0.000000E+00	    1.000000E+00	    0.000000E+00	    0.000000E+00	
    9.900376E-03	    5.964312E-03	    0.000000E+00	   -1.000000E+00	    1.200000E-02	    1.200000E-02	    8.750000E+02	    0.000000E+00	    0.000000E+00	    3.707371E+06	    0.000000E+00	    1.000000E+00	    0.000000E+00	    0.000000E+00	
    1.026783E-02	    5.483978E-03	    0.000000E+00	   -1.000000E+00	    1.200000E-02	    1.200000E-02	    8.750000E+02	    0.000000E+00	    0.000000E+00	    4.384782E+06	    0.000000E+00	    1.000000E+00	    0.000000E+00	    0.000000E+00	
    1.060083E-02	    5.003644E-03	    0.000000E+00	   -1.000000E+00	    1.200000E-02	    1.200000E-02	    8.750000E+02	    0.000000E+00	    0.000000E+00	    5.266465E+06	    0.000000E+00	    1.000000E+00	    0.000000E+00	    0.000000E+00	
    1.089872E-02	    4.529708E-03	    0.000000E+00	   -1.000000E+00	    1.200000E-02	    1.200000E-02	    8.750000E+02	    0.000000E+00	    0.000000E+00	    6.425469E+06	    0.000000E+00	    1.000000E+00	    0.000000E+00	    0.000000E+00	
    1.116183E-02	    4.068245E-03	    0.000000E+00	   -1.000000E+00	    1.200000E-02	    1.200000E-02	    8.750000E+02	    0.000000E+00	    0.000000E+00	    7.964997E+06	    0.000000E+00	    1.000000E+00	    0.000000E+00	    0.000000E+00	
    1.139138E-02	    3.624749E-03	    0.000000E+00	   -1.000000E+00	    1.200000E-02	    1.200000E-02	    8.750000E+02	    0.000000E+00	    0.000000E+00	    1.003229E+07	    0.000000E+00	    1.000000E+00	    0.000000E+00	    0.000000E+00	
    1.158931E-02	    3.203933E-03	    0.000000E+00	   -1.000000E+00	    1.200000E-02	    1.200000E-02	    8.750000E+02	    0.000000E+00	    0.000000E+00	    1.283949E+07	    0.000000E+00	    1.000000E+00	    0.000000E+00	    0.000000E+00	
    1.175811E-02	    2.809580E-03	    0.000000E+00	   -1.000000E+00	    1.200000E-02	    1.200000E-02	    8.750000E+02	    0.000000E+00	    0.000000E+00	    1.669525E+07	    0.000000E+00	    1.000000E+00	    0.000000E+00	    0.000000E+00	
    1.190061E-02	    2.444478E-03	    0.000000E+00	   -1.000000E+00	    1.200000E-02	    1.200000E-02	    8.750000E+02	    0.000000E+00	    0.000000E+00	    2.205299E+07	    0.000000E+00	    1.000000E+00	    0.000000E+00	    0.000000E+00	
    1.201981E-02	    2.110407E-03	    0.000000E+00	   -1.000000E+00	    1.200000E-02	    1.200000E-02	    8.750000E+02	    0.000000E+00	    0.000000E+00	    2.958519E+07	    0.000000E+00	    1.000000E+00	    0.000000E+00	    0.000000E+00	
    1.211871E-02	    1.808188E-03	    0.000000E+00	   -1.000000E+00	    1.200000E-02	    1.200000E-02	    8.750000E+02	    0.000000E+00	    0.000000E+00	    4.029857E+07	    0.000000E+00	    1.000000E+00	    0.000000E+00	    0.000000E+00	
    1.220017E-02	    1.537779E-03	    0.000000E+00	   -1.000000E+00	    1.200000E-02	    1.200000E-02	    8.750000E+02	    0.000000E+00	    0.000000E+00	    5.571378E+07	    0.000000E+00	    1.000000E+00	    0.000000E+00	    0.000000E+00	
    1.226686E-02	    1.298389E-03	    0.000000E+00	   -1.000000E+00	    1.200000E-02	    1.200000E-02	    8.750000E+02	    0.000000E+00	    0.000000E+00	    7.814785E+07	    0.000000E+00	    1.000000E+00	    0.000000E+00	    0.000000E+00	
    1.232118E-02	    1.088624E-03	    0.000000E+00	   -1.000000E+00	    1.200000E-02	    1.200000E-02	    8.750000E+02	    0.000000E+00	    0.000000E+00	    1.111604E+08	    0.000000E+00	    1.000000E+00	    0.000000E+00	    0.000000E+00	
    1.236523E-02	    9.066253E-04	    0.000000E+00	   -1.000000E+00	    1.200000E-02	    1.200000E-02	    8.750000E+02	    0.000000E+00	    0.000000E+00	    1.602626E+08	    0.000000E+00	    1.000000E+00	    0.000000E+00	    0.000000E+00	
    1.240084E-02	    7.502120E-04	    0.000000E+00	   -1.000000E+00	    1.200000E-02	    1.200000E-02	    8.750000E+02	    0.000000E+00	    0.000000E+00	    2.340478E+08	    0.000000E+00	    1.000000E+00	    0.000000E+00	    0.000000E+00	
    1.242952E-02	    6.170076E-04	    0.000000E+00	   -1.000000E+00	    1.200000E-02	    1.200000E-02	    8.750000E+02	    0.000000E+00	    0.000000E+00	    3.460018E+08	    0.000000E+00	    1.000000E+00	    0.000000E+00	    0.000000E+00	
    1.245258E-02	    5.045529E-04	    0.000000E+00	   -1.000000E+00	    1.200000E-02	    1.200000E-02	    8.750000E+02	    0.000000E+00	    0.000000E+00	    5.174100E+08	    0.000000E+00	    1.000000E+00	    0.000000E+00	    0.000000E+00	
    1.247107E-02	    4.104005E-04	    0.000000E+00	   -1.000000E+00	    1.200000E-02	    1.200000E-02	    8.750000E+02	    0.000000E+00	    0.000000E+00	    7.820296E+08	    0.000000E+00	    1.000000E+00	    0.000000E+00	    0.000000E+00	
    1.248587E-02	    3.321886E-04	    0.000000E+00	   -1.000000E+00	    1.200000E-02	    1.200000E-02	    8.750000E+02	    0.000000E+00	    0.000000E+00	    1.193608E+09	    0.000000E+00	    1.000000E+00	    0.000000E+00	    0.000000E+00	
    1.249770E-02	    2.676969E-04	    0.000000E+00	   -1.000000E+00	    1.200000E-02	    1.200000E-02	    8.750000E+02	    0.000000E+00	    0.000000E+00	    1.837969E+09	    0.000000E+00	    1.000000E+00	    0.000000E+00	    0.000000E+00	
    1.250712E-02	    2.148841E-04	    0.000000E+00	   -1.000000E+00	    1.200000E-02	    1.200000E-02	    8.750000E+02	    0.000000E+00	    0.000000E+00	    2.852404E+09	    0.000000E+00	    1.000000E+00	    0.000000E+00	    0.000000E+00	
    1.251462E-02	    1.719101E-04	    0.000000E+00	   -1.000000E+00	    1.200000E-02	    1.200000E-02	    8.750000E+02	    0.000000E+00	    0.000000E+00	    4.456691E+09	    0.000000E+00	    1.000000E+00	    0.000000E+00	    0.000000E+00	
    1.252058E-02	    1.371453E-04	    0.000000E+00	   -1.000000E+00	    1.200000E-02	    1.200000E-02	    8.750000E+02	    0.000000E+00	    0.000000E+00	    7.002456E+09	    0.000000E+00	    1.000000E+00	    0.000000E+00	    0.000000E+00	
    1.252530E-02	    1.091687E-04	    0.000000E+00	   -1.000000E+00	    1.200000E-02	    1.200000E-02	    8.750000E+02	    0.000000E+00	    0.000000E+00	    1.105128E+10	    0.000000E+00	    1.000000E+00	    0.000000E+00	    0.000000E+00	
    1.252903E-02	    8.675968E-05	    0.000000E+00	   -1.000000E+00	    1.200000E-02	    1.200000E-02	    8.750000E+02	    0.000000E+00	    0.000000E+00	    1.749731E+10	    0.000000E+00	    1.000000E+00	    0.000000E+00	    0.000000E+00	
    1.253198E-02	    6.888258E-05	    0.000000E+00	   -1.000000E+00	    1.200000E-02	    1.200000E-02	    8.750000E+02	    0.000000E+00	    0.000000E+00	    2.775790E+10	    0.000000E+00	    1.000000E+00	    0.000000E+00	    0.000000E+00	
    1.253322E-02	    6.136627E-05	    0.000000E+00	   -1.000000E+00	    1.200000E-02	    1.200000E-02	    8.750000E+02	    0.000000E+00	    0.000000E+00	    0.000000E+00	    0.000000E+00	    1.000000E+00	    0.000000E+00	    0.000000E+00	
   -1.253304E-02	    6.133741E-05	    0.000000E+00	   -1.000000E+00	    1.200000E-02	    1.200000E-02	    8.750000E+02	    0.000000E+00	    0.000000E+00	    0.000000E+00	    0.000000E+00	    1.000000E+00	    0.000000E+00	    0.000000E+00	
   -1.253179E-02	    6.885006E-05	    8.213045E-06	   -1.000000E+00	    1.200000E-02	    1.200000E-02	    8.750000E+02	    3.431561E-19	    1.088605E-11	    2.775790E+10	    1.707364E+03	    1.000000E+00	    1.988100E-07	    1.099058E+01	
   -1.252879E-02	    8.671838E-05	    2.500733E-05	   -1.000000E+00	    1.200000E-02	    1.200000E-02	    8.750000E+02	    1.019863E-18	    2.039412E-11	    1.749731E+10	    9.973246E+03	    1.000000E+00	    2.504067E-07	    2.887260E+01	
   -1.252499E-02	    1.091162E-04	    4.306064E-05	   -1.000000E+00	    1.200000E-02	    1.200000E-02	    8.750000E+02	    4.786914E-18	    6.045890E-11	    1.105128E+10	    1.867629E+04	    1.000000E+00	    3.150832E-07	    5.406523E+01	
   -1.252019E-02	    1.370784E-04	    6.324220E-05	   -1.000000E+00	    1.200000E-02	    1.200000E-02	    8.750000E+02	    1.629953E-17	    1.304420E-10	    7.002456E+09	    2.552562E+04	    1.000000E+00	    3.958279E-07	    7.390280E+01	
   -1.251413E-02	    1.718250E-04	    8.643313E-05	   -1.000000E+00	    1.200000E-02	    1.200000E-02	    8.750000E+02	    4.785061E-17	    2.437204E-10	    4.456691E+09	    3.034454E+04	    1.000000E+00	    4.961641E-07	    8.786856E+01	
   -1.250651E-02	    2.147756E-04	    1.135279E-04	   -1.000000E+00	    1.200000E-02	    1.200000E-02	    8.750000E+02	    1.290267E-16	    4.206129E-10	    2.852404E+09	    3.350572E+04	    1.000000E+00	    6.201918E-07	    9.703982E+01	
   -1.249694E-02	    2.675585E-04	    1.454260E-04	   -1.000000E+00	    1.200000E-02	    1.200000E-02	    8.750000E+02	    3.286926E-16	    6.904306E-10	    1.837969E+09	    3.542569E+04	    1.000000E+00	    7.726139E-07	    1.026207E+02	
   -1.248493E-02	    3.320120E-04	    1.830155E-04	   -1.000000E+00	    1.200000E-02	    1.200000E-02	    8.750000E+02	    8.019073E-16	    1.093901E-09	    1.193608E+09	    3.643551E+04	    1.000000E+00	    9.587397E-07	    1.055682E+02	
   -1.246991E-02	    4.101750E-04	    2.271519E-04	   -1.000000E+00	    1.200000E-02	    1.200000E-02	    8.750000E+02	    1.886209E-15	    1.685795E-09	    7.820296E+08	    3.677332E+04	    1.000000E+00	    1.184459E-06	    1.065705E+02	
   -1.245115E-02	    5.042649E-04	    2.786377E-04	   -1.000000E+00	    1.200000E-02	    1.200000E-02	    8.750000E+02	    4.291378E-15	    2.537602E-09	    5.174100E+08	    3.660818E+04	    1.000000E+00	    1.456177E-06	    1.061161E+02	
   -1.242778E-02	    6.166396E-04	    3.382072E-04	   -1.000000E+00	    1.200000E-02	    1.200000E-02	    8.750000E+02	    9.458366E-15	    3.740128E-09	    3.460018E+08	    3.606541E+04	    1.000000E+00	    1.780707E-06	    1.045681E+02	
   -1.239872E-02	    7.497419E-04	    4.065217E-04	   -1.000000E+00	    1.200000E-02	    1.200000E-02	    8.750000E+02	    2.021080E-14	    5.406049E-09	    2.340478E+08	    3.524502E+04	    1.000000E+00	    2.165107E-06	    1.022170E+02	
   -1.236269E-02	    9.060250E-04	    4.841715E-04	   -1.000000E+00	    1.200000E-02	    1.200000E-02	    8.750000E+02	    4.188956E-14	    7.672379E-09	    1.602626E+08	    3.423188E+04	    1.000000E+00	    2.616468E-06	    9.930963E+01	
   -1.231813E-02	    1.087858E-03	    5.716776E-04	   -1.000000E+00	    1.200000E-02	    1.200000E-02	    8.750000E+02	    8.424574E-14	    1.070262E-08	    1.111604E+08	    3.309948E+04	    1.000000E+00	    3.141640E-06	    9.605973E+01	
   -1.226324E-02	    1.297414E-03	    6.694846E-04	   -1.000000E+00	    1.200000E-02	    1.200000E-02	    8.750000E+02	    1.644503E-13	    1.468736E-08	    7.814785E+07	    3.191016E+04	    1.000000E+00	    3.746908E-06	    9.264550E+01	
   -1.219591E-02	    1.536540E-03	    7.779411E-04	   -1.000000E+00	    1.200000E-02	    1.200000E-02	    8.750000E+02	    3.115631E-13	    1.983812E-08	    5.571378E+07	    3.071437E+04	    1.000000E+00	    4.437622E-06	    8.919785E+01	
   -1.211373E-02	    1.806621E-03	    8.972665E-04	   -1.000000E+00	    1.200000E-02	    1.200000E-02	    8.750000E+02	    5.735354E-13	    2.641447E-08	    4.029857E+07	    2.955054E+04	    1.000000E+00	    5.217792E-06	    8.586711E+01	
   -1.201405E-02	    2.108433E-03	    1.027507E-03	   -1.000000E+00	    1.200000E-02	    1.200000E-02	    8.750000E+02	    1.025650E-12	    3.467893E-08	    2.958519E+07	    2.844565E+04	    1.000000E+00	    6.089679E-06	    8.271551E+01	
   -1.189401E-02	    2.442006E-03	    1.168485E-03	   -1.000000E+00	    1.200000E-02	    1.200000E-02	    8.750000E+02	    1.781792E-12	    4.490723E-08	    2.205299E+07	    2.741676E+04	    1.000000E+00	    7.053390E-06	    7.978911E+01	
   -1.175061E-02	    2.806507E-03	    1.319754E-03	   -1.000000E+00	    1.200000E-02	    1.200000E-02	    8.750000E+02	    3.006913E-12	    5.737275E-08	    1.669525E+07	    2.647299E+04	    1.000000E+00	    8.106534E-06	    7.711404E+01	
   -1.158088E-02	    3.200141E-03	    1.480558E-03	   -1.000000E+00	    1.200000E-02	    1.200000E-02	    8.750000E+02	    4.928958E-12	    7.232607E-08	    1.283949E+07	    2.561749E+04	    1.000000E+00	    9.243953E-06	    7.469911E+01	