Title="Fields"
Variables="X""Y""Velocity""Phi""Effective Viscosity""Dynamic Viscosity""Density""Eddy Viscosity""K""Omega""S""F1SST""distance""GEN"
Zone I=82 J=82 F=POINT
   -1.089574E-02	    4.833326E-05	    0.000000E+00	   -1.000000E+00	    1.600000E-03	    1.600000E-03	    8.010000E+02	    0.000000E+00	    0.000000E+00	    1.505367E+09	    0.000000E+00	    1.000000E+00	    0.000000E+00	    0.000000E+00	
   -1.089946E-02	    5.586712E-05	    0.000000E+00	   -1.000000E+00	    1.600000E-03	    1.600000E-03	    8.010000E+02	    0.000000E+00	    0.000000E+00	    1.505367E+09	    0.000000E+00	    1.000000E+00	    0.000000E+00	    0.000000E+00	
   -1.090867E-02	    7.460815E-05	    0.000000E+00	   -1.000000E+00	    1.600000E-03	    1.600000E-03	    8.010000E+02	    0.000000E+00	    0.000000E+00	    8.440856E+08	    0.000000E+00	    1.000000E+00	    0.000000E+00	    0.000000E+00	
   -1.092083E-02	    9.948393E-05	    0.000000E+00	   -1.000000E+00	    1.600000E-03	    1.600000E-03	    8.010000E+02	    0.000000E+00	    0.000000E+00	    4.747428E+08	    0.000000E+00	    1.000000E+00	    0.000000E+00	    0.000000E+00	
   -1.093678E-02	    1.323070E-04	    0.000000E+00	   -1.000000E+00	    1.600000E-03	    1.600000E-03	    8.010000E+02	    0.000000E+00	    0.000000E+00	    2.684140E+08	    0.000000E+00	    1.000000E+00	    0.000000E+00	    0.000000E+00	
   -1.095749E-02	    1.753198E-04	    0.000000E+00	   -1.000000E+00	    1.600000E-03	    1.600000E-03	    8.010000E+02	    0.000000E+00	    0.000000E+00	    1.528685E+08	    0.000000E+00	    1.000000E+00	    0.000000E+00	    0.000000E+00	
   -1.098411E-02	    2.312533E-04	    0.000000E+00	   -1.000000E+00	    1.600000E-03	    1.600000E-03	    8.010000E+02	    0.000000E+00	    0.000000E+00	    8.786500E+07	    0.000000E+00	    1.000000E+00	    0.000000E+00	    0.000000E+00	
   -1.101792E-02	    3.033796E-04	    0.000000E+00	   -1.000000E+00	    1.600000E-03	    1.600000E-03	    8.010000E+02	    0.000000E+00	    0.000000E+00	    5.105450E+07	    0.000000E+00	    1.000000E+00	    0.000000E+00	    0.000000E+00	
   -1.106030E-02	    3.955540E-04	    0.000000E+00	   -1.000000E+00	    1.600000E-03	    1.600000E-03	    8.010000E+02	    0.000000E+00	    0.000000E+00	    3.003410E+07	    0.000000E+00	    1.000000E+00	    0.000000E+00	    0.000000E+00	
   -1.111262E-02	    5.122404E-04	    0.000000E+00	   -1.000000E+00	    1.600000E-03	    1.600000E-03	    8.010000E+02	    0.000000E+00	    0.000000E+00	    1.791030E+07	    0.000000E+00	    1.000000E+00	    0.000000E+00	    0.000000E+00	
   -1.117614E-02	    6.585167E-04	    0.000000E+00	   -1.000000E+00	    1.600000E-03	    1.600000E-03	    8.010000E+02	    0.000000E+00	    0.000000E+00	    1.083795E+07	    0.000000E+00	    1.000000E+00	    0.000000E+00	    0.000000E+00	
   -1.125182E-02	    8.400523E-04	    0.000000E+00	   -1.000000E+00	    1.600000E-03	    1.600000E-03	    8.010000E+02	    0.000000E+00	    0.000000E+00	    6.660489E+06	    0.000000E+00	    1.000000E+00	    0.000000E+00	    0.000000E+00	
   -1.134013E-02	    1.063051E-03	    0.000000E+00	   -1.000000E+00	    1.600000E-03	    1.600000E-03	    8.010000E+02	    0.000000E+00	    0.000000E+00	    4.159651E+06	    0.000000E+00	    1.000000E+00	    0.000000E+00	    0.000000E+00	
   -1.144071E-02	    1.334150E-03	    0.000000E+00	   -1.000000E+00	    1.600000E-03	    1.600000E-03	    8.010000E+02	    0.000000E+00	    0.000000E+00	    2.641267E+06	    0.000000E+00	    1.000000E+00	    0.000000E+00	    0.000000E+00	
   -1.155212E-02	    1.660259E-03	    0.000000E+00	   -1.000000E+00	    1.600000E-03	    1.600000E-03	    8.010000E+02	    0.000000E+00	    0.000000E+00	    1.705840E+06	    0.000000E+00	    1.000000E+00	    0.000000E+00	    0.000000E+00	
   -1.167144E-02	    2.048319E-03	    0.000000E+00	   -1.000000E+00	    1.600000E-03	    1.600000E-03	    8.010000E+02	    0.000000E+00	    0.000000E+00	    1.120923E+06	    0.000000E+00	    1.000000E+00	    0.000000E+00	    0.000000E+00	
   -1.179397E-02	    2.504972E-03	    0.000000E+00	   -1.000000E+00	    1.600000E-03	    1.600000E-03	    8.010000E+02	    0.000000E+00	    0.000000E+00	    7.496529E+05	    0.000000E+00	    1.000000E+00	    0.000000E+00	    0.000000E+00	
   -1.191290E-02	    3.036102E-03	    0.000000E+00	   -1.000000E+00	    1.600000E-03	    1.600000E-03	    8.010000E+02	    0.000000E+00	    0.000000E+00	    5.104395E+05	    0.000000E+00	    1.000000E+00	    0.000000E+00	    0.000000E+00	
   -1.201914E-02	    3.646251E-03	    0.000000E+00	   -1.000000E+00	    1.600000E-03	    1.600000E-03	    8.010000E+02	    0.000000E+00	    0.000000E+00	    3.540068E+05	    0.000000E+00	    1.000000E+00	    0.000000E+00	    0.000000E+00	
   -1.210130E-02	    4.337911E-03	    0.000000E+00	   -1.000000E+00	    1.600000E-03	    1.600000E-03	    8.010000E+02	    0.000000E+00	    0.000000E+00	    2.502007E+05	    0.000000E+00	    1.000000E+00	    0.000000E+00	    0.000000E+00	
   -1.214594E-02	    5.110734E-03	    0.000000E+00	   -1.000000E+00	    1.600000E-03	    1.600000E-03	    8.010000E+02	    0.000000E+00	    0.000000E+00	    1.803209E+05	    0.000000E+00	    1.000000E+00	    0.000000E+00	    0.000000E+00	
   -1.213817E-02	    5.960743E-03	    0.000000E+00	   -1.000000E+00	    1.600000E-03	    1.600000E-03	    8.010000E+02	    0.000000E+00	    0.000000E+00	    1.326149E+05	    0.000000E+00	    1.000000E+00	    0.000000E+00	    0.000000E+00	
   -1.206257E-02	    6.879677E-03	    0.000000E+00	   -1.000000E+00	    1.600000E-03	    1.600000E-03	    8.010000E+02	    0.000000E+00	    0.000000E+00	    9.959891E+04	    0.000000E+00	    1.000000E+00	    0.000000E+00	    0.000000E+00	
   -1.190453E-02	    7.854639E-03	    0.000000E+00	   -1.000000E+00	    1.600000E-03	    1.600000E-03	    8.010000E+02	    0.000000E+00	    0.000000E+00	    7.644551E+04	    0.000000E+00	    1.000000E+00	    0.000000E+00	    0.000000E+00	
   -1.165181E-02	    8.868226E-03	    0.000000E+00	   -1.000000E+00	    1.600000E-03	    1.600000E-03	    8.010000E+02	    0.000000E+00	    0.000000E+00	    6.000119E+04	    0.000000E+00	    1.000000E+00	    0.000000E+00	    0.000000E+00	
   -1.129605E-02	    9.899258E-03	    0.000000E+00	   -1.000000E+00	    1.600000E-03	    1.600000E-03	    8.010000E+02	    0.000000E+00	    0.000000E+00	    4.818044E+04	    0.000000E+00	    1.000000E+00	    0.000000E+00	    0.000000E+00	
   -1.083415E-02	    1.092412E-02	    0.000000E+00	   -1.000000E+00	    1.600000E-03	    1.600000E-03	    8.010000E+02	    0.000000E+00	    0.000000E+00	    3.958732E+04	    0.000000E+00	    1.000000E+00	    0.000000E+00	    0.000000E+00	
   -1.026897E-02	    1.191861E-02	    0.000000E+00	   -1.000000E+00	    1.600000E-03	    1.600000E-03	    8.010000E+02	    0.000000E+00	    0.000000E+00	    3.327667E+04	    0.000000E+00	    1.000000E+00	    0.000000E+00	    0.000000E+00	
   -9.609360E-03	    1.285993E-02	    0.000000E+00	   -1.000000E+00	    1.600000E-03	    1.600000E-03	    8.010000E+02	    0.000000E+00	    0.000000E+00	    2.860088E+04	    0.000000E+00	    1.000000E+00	    0.000000E+00	    0.000000E+00	
   -8.869421E-03	    1.372867E-02	    0.000000E+00	   -1.000000E+00	    1.600000E-03	    1.600000E-03	    8.010000E+02	    0.000000E+00	    0.000000E+00	    2.511109E+04	    0.000000E+00	    1.000000E+00	    0.000000E+00	    0.000000E+00	
   -8.067055E-03	    1.451013E-02	    0.000000E+00	   -1.000000E+00	    1.600000E-03	    1.600000E-03	    8.010000E+02	    0.000000E+00	    0.000000E+00	    2.249250E+04	    0.000000E+00	    1.000000E+00	    0.000000E+00	    0.000000E+00	
   -7.222210E-03	    1.519517E-02	    0.000000E+00	   -1.000000E+00	    1.600000E-03	    1.600000E-03	    8.010000E+02	    0.000000E+00	    0.000000E+00	    2.052173E+04	    0.000000E+00	    1.000000E+00	    0.000000E+00	    0.000000E+00	
   -6.355068E-03	    1.578016E-02	    0.000000E+00	   -1.000000E+00	    1.600000E-03	    1.600000E-03	    8.010000E+02	    0.000000E+00	    0.000000E+00	    1.903815E+04	    0.000000E+00	    1.000000E+00	    0.000000E+00	    0.000000E+00	
   -5.484492E-03	    1.626642E-02	    0.000000E+00	   -1.000000E+00	    1.600000E-03	    1.600000E-03	    8.010000E+02	    0.000000E+00	    0.000000E+00	    1.792493E+04	    0.000000E+00	    1.000000E+00	    0.000000E+00	    0.000000E+00	
   -4.626914E-03	    1.665921E-02	    0.000000E+00	   -1.000000E+00	    1.600000E-03	    1.600000E-03	    8.010000E+02	    0.000000E+00	    0.000000E+00	    1.709611E+04	    0.000000E+00	    1.000000E+00	    0.000000E+00	    0.000000E+00	
   -3.795702E-03	    1.696659E-02	    0.000000E+00	   -1.000000E+00	    1.600000E-03	    1.600000E-03	    8.010000E+02	    0.000000E+00	    0.000000E+00	    1.648737E+04	    0.000000E+00	    1.000000E+00	    0.000000E+00	    0.000000E+00	
   -3.000976E-03	    1.719826E-02	    0.000000E+00	   -1.000000E+00	    1.600000E-03	    1.600000E-03	    8.010000E+02	    0.000000E+00	    0.000000E+00	    1.605003E+04	    0.000000E+00	    1.000000E+00	    0.000000E+00	    0.000000E+00	
   -2.249761E-03	    1.736459E-02	    0.000000E+00	   -1.000000E+00	    1.600000E-03	    1.600000E-03	    8.010000E+02	    0.000000E+00	    0.000000E+00	    1.574680E+04	    0.000000E+00	    1.000000E+00	    0.000000E+00	    0.000000E+00	
   -1.546347E-03	    1.747590E-02	    0.000000E+00	   -1.000000E+00	    1.600000E-03	    1.600000E-03	    8.010000E+02	    0.000000E+00	    0.000000E+00	    1.554874E+04	    0.000000E+00	    1.000000E+00	    0.000000E+00	    0.000000E+00	
   -8.927652E-04	    1.754186E-02	    0.000000E+00	   -1.000000E+00	    1.600000E-03	    1.600000E-03	    8.010000E+02	    0.000000E+00	    0.000000E+00	    1.543314E+04	    0.000000E+00	    1.000000E+00	    0.000000E+00	    0.000000E+00	
   -2.892749E-04	    1.757126E-02	    0.000000E+00	   -1.000000E+00	    1.600000E-03	    1.600000E-03	    8.010000E+02	    0.000000E+00	    0.000000E+00	    1.538203E+04	    0.000000E+00	    1.000000E+00	    0.000000E+00	    0.000000E+00	
    2.892749E-04	    1.757126E-02	    0.000000E+00	   -1.000000E+00	    1.600000E-03	    1.600000E-03	    8.010000E+02	    0.000000E+00	    0.000000E+00	    1.538203E+04	    0.000000E+00	    1.000000E+00	    0.000000E+00	    0.000000E+00	
    8.927652E-04	    1.754186E-02	    0.000000E+00	   -1.000000E+00	    1.600000E-03	    1.600000E-03	    8.010000E+02	    0.000000E+00	    0.000000E+00	    1.543314E+04	    0.000000E+00	    1.000000E+00	    0.000000E+00	    0.000000E+00	
    1.546347E-03	    1.747590E-02	    0.000000E+00	   -1.000000E+00	    1.600000E-03	    1.600000E-03	    8.010000E+02	    0.000000E+00	    0.000000E+00	    1.554874E+04	    0.000000E+00	    1.000000E+00	    0.000000E+00	    0.000000E+00	
    2.249761E-03	    1.736459E-02	    0.000000E+00	   -1.000000E+00	    1.600000E-03	    1.600000E-03	    8.010000E+02	    0.000000E+00	    0.000000E+00	    1.574680E+04	    0.000000E+00	    1.000000E+00	    0.000000E+00	    0.000000E+00	
    3.000976E-03	    1.719826E-02	    0.000000E+00	   -1.000000E+00	    1.600000E-03	    1.600000E-03	    8.010000E+02	    0.000000E+00	    0.000000E+00	    1.605003E+04	    0.000000E+00	    1.000000E+00	    0.000000E+00	    0.000000E+00	
    3.795702E-03	    1.696659E-02	    0.000000E+00	   -1.000000E+00	    1.600000E-03	    1.600000E-03	    8.010000E+02	    0.000000E+00	    0.000000E+00	    1.648737E+04	    0.000000E+00	    1.000000E+00	    0.000000E+00	    0.000000E+00	
    4.626914E-03	    1.665921E-02	    0.000000E+00	   -1.000000E+00	    1.600000E-03	    1.600000E-03	    8.010000E+02	    0.000000E+00	    0.000000E+00	    1.709611E+04	    0.000000E+00	    1.000000E+00	    0.000000E+00	    0.000000E+00	
    5.484492E-03	    1.626642E-02	    0.000000E+00	   -1.000000E+00	    1.600000E-03	    1.600000E-03	    8.010000E+02	    0.000000E+00	    0.000000E+00	    1.792493E+04	    0.000000E+00	    1.000000E+00	    0.000000E+00	    0.000000E+00	
    6.355068E-03	    1.578016E-02	    0.000000E+00	   -1.000000E+00	    1.600000E-03	    1.600000E-03	    8.010000E+02	    0.000000E+00	    0.000000E+00	    1.903815E+04	    0.000000E+00	    1.000000E+00	    0.000000E+00	    0.000000E+00	
    7.222210E-03	    1.519517E-02	    0.000000E+00	   -1.000000E+00	    1.600000E-03	    1.600000E-03	    8.010000E+02	    0.000000E+00	    0.000000E+00	    2.052173E+04	    0.000000E+00	    1.000000E+00	    0.000000E+00	    0.000000E+00	
    8.067055E-03	    1.451013E-02	    0.000000E+00	   -1.000000E+00	    1.600000E-03	    1.600000E-03	    8.010000E+02	    0.000000E+00	    0.000000E+00	    2.249250E+04	    0.000000E+00	    1.000000E+00	    0.000000E+00	    0.000000E+00	
    8.869421E-03	    1.372867E-02	    0.000000E+00	   -1.000000E+00	    1.600000E-03	    1.600000E-03	    8.010000E+02	    0.000000E+00	    0.000000E+00	    2.511109E+04	    0.000000E+00	    1.000000E+00	    0.000000E+00	    0.000000E+00	
    9.609360E-03	    1.285993E-02	    0.000000E+00	   -1.000000E+00	    1.600000E-03	    1.600000E-03	    8.010000E+02	    0.000000E+00	    0.000000E+00	    2.860088E+04	    0.000000E+00	    1.000000E+00	    0.000000E+00	    0.000000E+00	
    1.026897E-02	    1.191861E-02	    0.000000E+00	   -1.000000E+00	    1.600000E-03	    1.600000E-03	    8.010000E+02	    0.000000E+00	    0.000000E+00	    3.327667E+04	    0.000000E+00	    1.000000E+00	    0.000000E+00	    0.000000E+00	
    1.083415E-02	    1.092412E-02	    0.000000E+00	   -1.000000E+00	    1.600000E-03	    1.600000E-03	    8.010000E+02	    0.000000E+00	    0.000000E+00	    3.958732E+04	    0.000000E+00	    1.000000E+00	    0.000000E+00	    0.000000E+00	
    1.129605E-02	    9.899258E-03	    0.000000E+00	   -1.000000E+00	    1.600000E-03	    1.600000E-03	    8.010000E+02	    0.000000E+00	    0.000000E+00	    4.818044E+04	    0.000000E+00	    1.000000E+00	    0.000000E+00	    0.000000E+00	
    1.165181E-02	    8.868226E-03	    0.000000E+00	   -1.000000E+00	    1.600000E-03	    1.600000E-03	    8.010000E+02	    0.000000E+00	    0.000000E+00	    6.000119E+04	    0.000000E+00	    1.000000E+00	    0.000000E+00	    0.000000E+00	
    1.190453E-02	    7.854639E-03	    0.000000E+00	   -1.000000E+00	    1.600000E-03	    1.600000E-03	    8.010000E+02	    0.000000E+00	    0.000000E+00	    7.644551E+04	    0.000000E+00	    1.000000E+00	    0.000000E+00	    0.000000E+00	
    1.206257E-02	    6.879677E-03	    0.000000E+00	   -1.000000E+00	    1.600000E-03	    1.600000E-03	    8.010000E+02	    0.000000E+00	    0.000000E+00	    9.959891E+04	    0.000000E+00	    1.000000E+00	    0.000000E+00	    0.000000E+00	
    1.213817E-02	    5.960743E-03	    0.000000E+00	   -1.000000E+00	    1.600000E-03	    1.600000E-03	    8.010000E+02	    0.000000E+00	    0.000000E+00	    1.326149E+05	    0.000000E+00	    1.000000E+00	    0.000000E+00	    0.000000E+00	
    1.214594E-02	    5.110734E-03	    0.000000E+00	   -1.000000E+00	    1.600000E-03	    1.600000E-03	    8.010000E+02	    0.000000E+00	    0.000000E+00	    1.803209E+05	    0.000000E+00	    1.000000E+00	    0.000000E+00	    0.000000E+00	
    1.210130E-02	    4.337911E-03	    0.000000E+00	   -1.000000E+00	    1.600000E-03	    1.600000E-03	    8.010000E+02	    0.000000E+00	    0.000000E+00	    2.502007E+05	    0.000000E+00	    1.000000E+00	    0.000000E+00	    0.000000E+00	
    1.201914E-02	    3.646251E-03	    0.000000E+00	   -1.000000E+00	    1.600000E-03	    1.600000E-03	    8.010000E+02	    0.000000E+00	    0.000000E+00	    3.540068E+05	    0.000000E+00	    1.000000E+00	    0.000000E+00	    0.000000E+00	
    1.191290E-02	    3.036102E-03	    0.000000E+00	   -1.000000E+00	    1.600000E-03	    1.600000E-03	    8.010000E+02	    0.000000E+00	    0.000000E+00	    5.104395E+05	    0.000000E+00	    1.000000E+00	    0.000000E+00	    0.000000E+00	
    1.179397E-02	    2.504972E-03	    0.000000E+00	   -1.000000E+00	    1.600000E-03	    1.600000E-03	    8.010000E+02	    0.000000E+00	    0.000000E+00	    7.496529E+05	    0.000000E+00	    1.000000E+00	    0.000000E+00	    0.000000E+00	
    1.167144E-02	    2.048319E-03	    0.000000E+00	   -1.000000E+00	    1.600000E-03	    1.600000E-03	    8.010000E+02	    0.000000E+00	    0.000000E+00	    1.120923E+06	    0.000000E+00	    1.000000E+00	    0.000000E+00	    0.000000E+00	
    1.155212E-02	    1.660259E-03	    0.000000E+00	   -1.000000E+00	    1.600000E-03	    1.600000E-03	    8.010000E+02	    0.000000E+00	    0.000000E+00	    1.705840E+06	    0.000000E+00	    1.000000E+00	    0.000000E+00	    0.000000E+00	
    1.144071E-02	    1.334150E-03	    0.000000E+00	   -1.000000E+00	    1.600000E-03	    1.600000E-03	    8.010000E+02	    0.000000E+00	    0.000000E+00	    2.641267E+06	    0.000000E+00	    1.000000E+00	    0.000000E+00	    0.000000E+00	
    1.134013E-02	    1.063051E-03	    0.000000E+00	   -1.000000E+00	    1.600000E-03	    1.600000E-03	    8.010000E+02	    0.000000E+00	    0.000000E+00	    4.159651E+06	    0.000000E+00	    1.000000E+00	    0.000000E+00	    0.000000E+00	
    1.125182E-02	    8.400523E-04	    0.000000E+00	   -1.000000E+00	    1.600000E-03	    1.600000E-03	    8.010000E+02	    0.000000E+00	    0.000000E+00	    6.660489E+06	    0.000000E+00	    1.000000E+00	    0.000000E+00	    0.000000E+00	
    1.117614E-02	    6.585167E-04	    0.000000E+00	   -1.000000E+00	    1.600000E-03	    1.600000E-03	    8.010000E+02	    0.000000E+00	    0.000000E+00	    1.083795E+07	    0.000000E+00	    1.000000E+00	    0.000000E+00	    0.000000E+00	
    1.111262E-02	    5.122404E-04	    0.000000E+00	   -1.000000E+00	    1.600000E-03	    1.600000E-03	    8.010000E+02	    0.000000E+00	    0.000000E+00	    1.791030E+07	    0.000000E+00	    1.000000E+00	    0.000000E+00	    0.000000E+00	
    1.106030E-02	    3.955540E-04	    0.000000E+00	   -1.000000E+00	    1.600000E-03	    1.600000E-03	    8.010000E+02	    0.000000E+00	    0.000000E+00	    3.003410E+07	    0.000000E+00	    1.000000E+00	    0.000000E+00	    0.000000E+00	
    1.101792E-02	    3.033796E-04	    0.000000E+00	   -1.000000E+00	    1.600000E-03	    1.600000E-03	    8.010000E+02	    0.000000E+00	    0.000000E+00	    5.105450E+07	    0.000000E+00	    1.000000E+00	    0.000000E+00	    0.000000E+00	
    1.098411E-02	    2.312533E-04	    0.000000E+00	   -1.000000E+00	    1.600000E-03	    1.600000E-03	    8.010000E+02	    0.000000E+00	    0.000000E+00	    8.786500E+07	    0.000000E+00	    1.000000E+00	    0.000000E+00	    0.000000E+00	
    1.095749E-02	    1.753198E-04	    0.000000E+00	   -1.000000E+00	    1.600000E-03	    1.600000E-03	    8.010000E+02	    0.000000E+00	    0.000000E+00	    1.528685E+08	    0.000000E+00	    1.000000E+00	    0.000000E+00	    0.000000E+00	
    1.093678E-02	    1.323070E-04	    0.000000E+00	   -1.000000E+00	    1.600000E-03	    1.600000E-03	    8.010000E+02	    0.000000E+00	    0.000000E+00	    2.684140E+08	    0.000000E+00	    1.000000E+00	    0.000000E+00	    0.000000E+00	
    1.092083E-02	    9.948393E-05	    0.000000E+00	   -1.000000E+00	    1.600000E-03	    1.600000E-03	    8.010000E+02	    0.000000E+00	    0.000000E+00	    4.747428E+08	    0.000000E+00	    1.000000E+00	    0.000000E+00	    0.000000E+00	
    1.090867E-02	    7.460815E-05	    0.000000E+00	   -1.000000E+00	    1.600000E-03	    1.600000E-03	    8.010000E+02	    0.000000E+00	    0.000000E+00	    8.440856E+08	    0.000000E+00	    1.000000E+00	    0.000000E+00	    0.000000E+00	
    1.089946E-02	    5.586712E-05	    0.000000E+00	   -1.000000E+00	    1.600000E-03	    1.600000E-03	    8.010000E+02	    0.000000E+00	    0.000000E+00	    1.505367E+09	    0.000000E+00	    1.000000E+00	    0.000000E+00	    0.000000E+00	
    1.089574E-02	    4.833326E-05	    0.000000E+00	   -1.000000E+00	    1.600000E-03	    1.600000E-03	    8.010000E+02	    0.000000E+00	    0.000000E+00	    0.000000E+00	    0.000000E+00	    1.000000E+00	    0.000000E+00	    0.000000E+00	
   -1.089549E-02	    4.845733E-05	    0.000000E+00	   -1.000000E+00	    1.600000E-03	    1.600000E-03	    8.010000E+02	    0.000000E+00	    0.000000E+00	    0.000000E+00	    0.000000E+00	    1.000000E+00	    0.000000E+00	    0.000000E+00	
   -1.089916E-02	    5.601033E-05	    6.427366E-05	   -1.000000E+00	    1.600000E-03	    1.600000E-03	    8.010000E+02	    2.836533E-16	    5.330867E-10	    1.505367E+09	    3.895359E+04	    1.000000E+00	    3.258123E-07	    2.988090E+01	
   -1.090828E-02	    7.479872E-05	    1.967354E-04	   -1.000000E+00	    1.600000E-03	    1.600000E-03	    8.010000E+02	    1.200799E-15	    1.265390E-09	    8.440856E+08	    2.044306E+05	    1.000000E+00	    4.351064E-07	    7.901335E+01	
   -1.092031E-02	    9.973685E-05	    3.427295E-04	   -1.000000E+00	    1.600000E-03	    1.600000E-03	    8.010000E+02	    6.488827E-15	    3.845847E-09	    4.747428E+08	    3.489135E+05	    1.000000E+00	    5.801757E-07	    1.349663E+02	
   -1.093608E-02	    1.326413E-04	    5.122259E-04	   -1.000000E+00	    1.600000E-03	    1.600000E-03	    8.010000E+02	    2.569423E-14	    8.610103E-09	    2.684140E+08	    4.406184E+05	    1.000000E+00	    7.715891E-07	    1.706437E+02	
   -1.095656E-02	    1.757591E-04	    7.163391E-04	   -1.000000E+00	    1.600000E-03	    1.600000E-03	    8.010000E+02	    8.859303E-14	    1.690772E-08	    1.528685E+08	    4.907554E+05	    1.000000E+00	    1.022421E-06	    1.904577E+02	
   -1.098289E-02	    2.318265E-04	    9.676955E-04	   -1.000000E+00	    1.600000E-03	    1.600000E-03	    8.010000E+02	    2.828804E-13	    3.103032E-08	    8.786500E+07	    5.147207E+05	    1.000000E+00	    1.348593E-06	    2.003397E+02	
   -1.101631E-02	    3.041211E-04	    1.280511E-03	   -1.000000E+00	    1.600000E-03	    1.600000E-03	    8.010000E+02	    8.590610E-13	    5.475521E-08	    5.105450E+07	    5.236462E+05	    1.000000E+00	    1.769179E-06	    2.046206E+02	
   -1.105820E-02	    3.965031E-04	    1.670566E-03	   -1.000000E+00	    1.600000E-03	    1.600000E-03	    8.010000E+02	    2.511105E-12	    9.415576E-08	    3.003410E+07	    5.242340E+05	    1.000000E+00	    2.306649E-06	    2.059306E+02	
   -1.110988E-02	    5.134408E-04	    2.155504E-03	   -1.000000E+00	    1.600000E-03	    1.600000E-03	    8.010000E+02	    7.105644E-12	    1.588816E-07	    1.791030E+07	    5.203731E+05	    1.000000E+00	    2.987015E-06	    2.058295E+02	
   -1.117260E-02	    6.600135E-04	    2.755413E-03	   -1.000000E+00	    1.600000E-03	    1.600000E-03	    8.010000E+02	    1.952675E-11	    2.642073E-07	    1.083795E+07	    5.144549E+05	    1.000000E+00	    3.839857E-06	    2.053174E+02	
   -1.124728E-02	    8.418883E-04	    3.493123E-03	   -1.000000E+00	    1.600000E-03	    1.600000E-03	    8.010000E+02	    5.221947E-11	    4.342163E-07	    6.660489E+06	    5.079844E+05	    1.000000E+00	    4.898190E-06	    2.050654E+02	
   -1.133434E-02	    1.065260E-03	    4.393758E-03	   -1.000000E+00	    1.600000E-03	    1.600000E-03	    8.010000E+02	    1.360505E-10	    7.065202E-07	    4.159651E+06	    5.017753E+05	    1.000000E+00	    6.198124E-06	    2.054824E+02	
   -1.143338E-02	    1.336749E-03	    5.483273E-03	   -1.000000E+00	    1.600000E-03	    1.600000E-03	    8.010000E+02	    3.453487E-10	    1.138774E-06	    2.641267E+06	    4.960272E+05	    1.000000E+00	    7.778262E-06	    2.067237E+02	
   -1.154291E-02	    1.663232E-03	    6.788999E-03	   -1.000000E+00	    1.600000E-03	    1.600000E-03	    8.010000E+02	    8.541458E-10	    1.819022E-06	    1.705840E+06	    4.908647E+05	    1.000000E+00	    9.678756E-06	    2.089211E+02	
   -1.165996E-02	    2.051605E-03	    8.336783E-03	   -1.000000E+00	    1.600000E-03	    1.600000E-03	    8.010000E+02	    2.056747E-09	    2.878220E-06	    1.120923E+06	    4.861199E+05	    1.000000E+00	    1.193991E-05	    2.120583E+02	
   -1.177979E-02	    2.508441E-03	    1.015065E-02	   -1.000000E+00	    1.600001E-03	    1.600000E-03	    8.010000E+02	    4.816947E-09	    4.508163E-06	    7.496529E+05	    4.816515E+05	    1.000000E+00	    1.460020E-05	    2.161092E+02	
   -1.189554E-02	    3.039531E-03	    1.225252E-02	   -1.000000E+00	    1.600002E-03	    1.600000E-03	    8.010000E+02	    1.096207E-08	    6.985609E-06	    5.104395E+05	    4.774666E+05	    1.000000E+00	    1.769362E-05	    2.211010E+02	
   -1.199811E-02	    3.649300E-03	    1.465809E-02	   -1.000000E+00	    1.600004E-03	    1.600000E-03	    8.010000E+02	    2.420466E-08	    1.069739E-05	    3.540068E+05	    4.735004E+05	    1.000000E+00	    2.124630E-05	    2.270107E+02	
   -1.207612E-02	    4.340098E-03	    1.735847E-02	   -1.000000E+00	    1.600008E-03	    1.600000E-03	    8.010000E+02	    5.158113E-08	    1.611190E-05	    2.502007E+05	    4.688105E+05	    1.000000E+00	    2.527233E-05	    2.331798E+02	
   -1.211618E-02	    5.111416E-03	    2.037653E-02	   -1.000000E+00	    1.600016E-03	    1.600000E-03	    8.010000E+02	    1.063961E-07	    2.395186E-05	    1.803209E+05	    4.649888E+05	    1.000000E+00	    2.976922E-05	    2.405257E+02	
   -1.210349E-02	    5.959110E-03	    2.366481E-02	   -1.000000E+00	    1.600032E-03	    1.600000E-03	    8.010000E+02	    2.107900E-07	    3.489874E-05	    1.326149E+05	    4.605308E+05	    1.000000E+00	    3.471332E-05	    2.479775E+02	
   -1.202281E-02	    6.874765E-03	    2.723102E-02	   -1.000000E+00	    1.600060E-03	    1.600000E-03	    8.010000E+02	    4.021796E-07	    5.000830E-05	    9.959891E+04	    4.570930E+05	    1.000000E+00	    4.005606E-05	    2.565342E+02	
   -1.185976E-02	    7.845367E-03	    3.095211E-02	   -1.000000E+00	    1.600110E-03	    1.600000E-03	    8.010000E+02	    7.303929E-07	    6.970694E-05	    7.644551E+04	    4.521129E+05	    1.000000E+00	    4.572198E-05	    2.642256E+02	
   -1.160236E-02	    8.853461E-03	    3.485206E-02	   -1.000000E+00	    1.600191E-03	    1.600000E-03	    8.010000E+02	    1.273474E-06	    9.539322E-05	    6.000119E+04	    4.483982E+05	    1.000000E+00	    5.160957E-05	    2.731641E+02	
   -1.124256E-02	    9.877902E-03	    3.883516E-02	   -1.000000E+00	    1.600317E-03	    1.600000E-03	    8.010000E+02	    2.116482E-06	    1.273072E-04	    4.818044E+04	    4.450534E+05	    1.000000E+00	    5.759555E-05	    2.823387E+02	
   -1.077757E-02	    1.089521E-02	    4.270608E-02	   -1.000000E+00	    1.600497E-03	    1.600000E-03	    8.010000E+02	    3.314754E-06	    1.638230E-04	    3.958732E+04	    4.396421E+05	    1.000000E+00	    6.354281E-05	    2.893617E+02	
   -1.021048E-02	    1.188142E-02	    4.648592E-02	   -1.000000E+00	    1.600743E-03	    1.600000E-03	    8.010000E+02	    4.954415E-06	    2.058258E-04	    3.327667E+04	    4.347283E+05	    1.000000E+00	    6.931099E-05	    2.967316E+02	
   -9.550331E-03	    1.281404E-02	    5.007881E-02	   -1.000000E+00	    1.601059E-03	    1.600000E-03	    8.010000E+02	    7.057979E-06	    2.520155E-04	    2.860088E+04	    4.299865E+05	    1.000000E+00	    7.476834E-05	    3.039688E+02	
   -8.811281E-03	    1.367400E-02	    5.340747E-02	   -1.000000E+00	    1.601439E-03	    1.600000E-03	    8.010000E+02	    9.590218E-06	    3.006502E-04	    2.511109E+04	    4.253998E+05	    1.000000E+00	    7.980265E-05	    3.108099E+02	
   -8.011186E-03	    1.444697E-02	    5.641642E-02	   -1.000000E+00	    1.601868E-03	    1.600000E-03	    8.010000E+02	    1.245456E-05	    3.497306E-04	    2.249250E+04	    4.211055E+05	    1.000000E+00	    8.432946E-05	    3.171104E+02	
   -7.169848E-03	    1.512408E-02	    5.907505E-02	   -1.000000E+00	    1.602326E-03	    1.600000E-03	    8.010000E+02	    1.550817E-05	    3.973214E-04	    2.052173E+04	    4.173171E+05	    1.000000E+00	    8.829632E-05	    3.228395E+02	
   -6.307232E-03	    1.570195E-02	    6.132362E-02	   -1.000000E+00	    1.602777E-03	    1.600000E-03	    8.010000E+02	    1.851506E-05	    4.400654E-04	    1.903815E+04	    4.136081E+05	    1.000000E+00	    9.168278E-05	    3.271204E+02	
   -5.441947E-03	    1.618204E-02	    6.315161E-02	   -1.000000E+00	    1.603191E-03	    1.600000E-03	    8.010000E+02	    2.127624E-05	    4.761236E-04	    1.792493E+04	    4.099401E+05	    1.000000E+00	    9.449697E-05	    3.298415E+02	
   -4.590162E-03	    1.656969E-02	    6.463903E-02	   -1.000000E+00	    1.603563E-03	    1.600000E-03	    8.010000E+02	    2.375294E-05	    5.069698E-04	    1.709611E+04	    4.070593E+05	    1.000000E+00	    9.676975E-05	    3.322029E+02	
   -3.765000E-03	    1.687294E-02	    6.580772E-02	   -1.000000E+00	    1.603878E-03	    1.600000E-03	    8.010000E+02	    2.585372E-05	    5.321596E-04	    1.648737E+04	    4.048230E+05	    1.000000E+00	    9.854803E-05	    3.341171E+02	
   -2.976374E-03	    1.710145E-02	    6.669029E-02	   -1.000000E+00	    1.604130E-03	    1.600000E-03	    8.010000E+02	    2.753565E-05	    5.517454E-04	    1.605003E+04	    4.031354E+05	    1.000000E+00	    9.988813E-05	    3.355838E+02	
   -2.231140E-03	    1.726548E-02	    6.732453E-02	   -1.000000E+00	    1.604320E-03	    1.600000E-03	    8.010000E+02	    2.879722E-05	    5.661226E-04	    1.574680E+04	    4.019185E+05	    1.000000E+00	    1.008502E-04	    3.366445E+02	
   -1.533467E-03	    1.737522E-02	    6.774894E-02	   -1.000000E+00	    1.604450E-03	    1.600000E-03	    8.010000E+02	    2.966703E-05	    5.758862E-04	    1.554874E+04	    4.010993E+05	    1.000000E+00	    1.014940E-04	    3.373551E+02	
   -8.853012E-04	    1.744025E-02	    6.800016E-02	   -1.000000E+00	    1.604529E-03	    1.600000E-03	    8.010000E+02	    3.019209E-05	    5.817211E-04	    1.543314E+04	    4.006085E+05	    1.000000E+00	    1.018754E-04	    3.377732E+02	
   -2.868524E-04	    1.746924E-02	    6.811142E-02	   -1.000000E+00	    1.604564E-03	    1.600000E-03	    8.010000E+02	    3.042779E-05	    5.843212E-04	    1.538203E+04	    4.003816E+05	    1.000000E+00	    1.020455E-04	    3.379521E+02	
    2.868524E-04	    1.746924E-02	    6.811142E-02	   -1.000000E+00	    1.604564E-03	    1.600000E-03	    8.010000E+02	    3.042779E-05	    5.843212E-04	    1.538203E+04	    4.003816E+05	    1.000000E+00	    1.020455E-04	    3.379521E+02	