Title="Mesh"
Variables="X","Y"
Zone I=82 J=82 F=POINT
   -1.269984E-02	    6.295992E-05	
   -1.269979E-02	    7.274859E-05	
   -1.269963E-02	    9.706935E-05	
   -1.269934E-02	    1.292870E-04	
   -1.269884E-02	    1.716857E-04	
   -1.269797E-02	    2.270549E-04	
   -1.269649E-02	    2.987330E-04	
   -1.269399E-02	    3.906262E-04	
   -1.268987E-02	    5.071921E-04	
   -1.268318E-02	    6.533745E-04	
   -1.267255E-02	    8.344798E-04	
   -1.265602E-02	    1.055984E-03	
   -1.263087E-02	    1.323263E-03	
   -1.259350E-02	    1.641250E-03	
   -1.253929E-02	    2.014018E-03	
   -1.246256E-02	    2.444313E-03	
   -1.235666E-02	    2.933059E-03	
   -1.221422E-02	    3.478896E-03	
   -1.202753E-02	    4.077804E-03	
   -1.178916E-02	    4.722892E-03	
   -1.149270E-02	    5.404437E-03	
   -1.113352E-02	    6.110212E-03	
   -1.070952E-02	    6.826135E-03	
   -1.022159E-02	    7.537180E-03	
   -9.673815E-03	    8.228444E-03	
   -9.073303E-03	    8.886235E-03	
   -8.429652E-03	    9.498998E-03	
   -7.754170E-03	    1.005797E-02	
   -7.058962E-03	    1.055751E-02	
   -6.356043E-03	    1.099503E-02	
   -5.656589E-03	    1.137071E-02	
   -4.970384E-03	    1.168697E-02	
   -4.305507E-03	    1.194791E-02	
   -3.668220E-03	    1.215871E-02	
   -3.063026E-03	    1.232509E-02	
   -2.492833E-03	    1.245294E-02	
   -1.959184E-03	    1.254797E-02	
   -1.462514E-03	    1.261551E-02	
   -1.002392E-03	    1.266038E-02	
   -5.777489E-04	    1.268685E-02	
   -1.870631E-04	    1.269862E-02	
    1.870631E-04	    1.269862E-02	
    5.777489E-04	    1.268685E-02	
    1.002392E-03	    1.266038E-02	
    1.462514E-03	    1.261551E-02	
    1.959184E-03	    1.254797E-02	
    2.492833E-03	    1.245294E-02	
    3.063026E-03	    1.232509E-02	
    3.668220E-03	    1.215871E-02	
    4.305507E-03	    1.194791E-02	
    4.970384E-03	    1.168697E-02	
    5.656589E-03	    1.137071E-02	
    6.356043E-03	    1.099503E-02	
    7.058962E-03	    1.055751E-02	
    7.754170E-03	    1.005797E-02	
    8.429652E-03	    9.498998E-03	
    9.073303E-03	    8.886235E-03	
    9.673815E-03	    8.228444E-03	
    1.022159E-02	    7.537180E-03	
    1.070952E-02	    6.826135E-03	
    1.113352E-02	    6.110212E-03	
    1.149270E-02	    5.404437E-03	
    1.178916E-02	    4.722892E-03	
    1.202753E-02	    4.077804E-03	
    1.221422E-02	    3.478896E-03	
    1.235666E-02	    2.933059E-03	
    1.246256E-02	    2.444313E-03	
    1.253929E-02	    2.014018E-03	
    1.259350E-02	    1.641250E-03	
    1.263087E-02	    1.323263E-03	
    1.265602E-02	    1.055984E-03	
    1.267255E-02	    8.344798E-04	
    1.268318E-02	    6.533745E-04	
    1.268987E-02	    5.071921E-04	
    1.269399E-02	    3.906262E-04	
    1.269649E-02	    2.987330E-04	
    1.269797E-02	    2.270549E-04	
    1.269884E-02	    1.716857E-04	
    1.269934E-02	    1.292870E-04	
    1.269963E-02	    9.706935E-05	
    1.269979E-02	    7.274859E-05	
    1.269984E-02	    6.295992E-05	
   -1.269959E-02	    6.295815E-05	
   -1.269950E-02	    7.274632E-05	
   -1.269924E-02	    9.706557E-05	
   -1.269882E-02	    1.292807E-04	
   -1.269815E-02	    1.716749E-04	
   -1.269706E-02	    2.270367E-04	
   -1.269528E-02	    2.987022E-04	
   -1.269242E-02	    3.905746E-04	
   -1.268783E-02	    5.071064E-04	
   -1.268055E-02	    6.532338E-04	
   -1.266920E-02	    8.342520E-04	
   -1.265178E-02	    1.055621E-03	
   -1.262557E-02	    1.322696E-03	
   -1.258695E-02	    1.640382E-03	
   -1.253128E-02	    2.012715E-03	
   -1.245290E-02	    2.442398E-03	
   -1.234517E-02	    2.930307E-03	
   -1.220075E-02	    3.475031E-03	
   -1.201199E-02	    4.072500E-03	
   -1.177151E-02	    4.715785E-03	
   -1.147302E-02	    5.395139E-03	
   -1.111197E-02	    6.098335E-03	
   -1.068637E-02	    6.811323E-03	
   -1.019720E-02	    7.519131E-03	
   -9.648617E-03	    8.206944E-03	
   -9.047785E-03	    8.861171E-03	
   -8.404315E-03	    9.470369E-03	
   -7.729496E-03	    1.002589E-02	
   -7.035388E-03	    1.052217E-02	
   -6.333940E-03	    1.095671E-02	
   -5.636248E-03	    1.132973E-02	
   -4.952015E-03	    1.164369E-02	
   -4.289241E-03	    1.190268E-02	
   -3.654119E-03	    1.211187E-02	
   -3.051091E-03	    1.227697E-02	
   -2.483019E-03	    1.240382E-02	
   -1.951412E-03	    1.249810E-02	
   -1.456681E-03	    1.256510E-02	
   -9.983806E-04	    1.260961E-02	
   -5.754318E-04	    1.263587E-02	
   -1.863122E-04	    1.264755E-02	
    1.863122E-04	    1.264755E-02	
    5.754318E-04	    1.263587E-02	
    9.983806E-04	    1.260961E-02	
    1.456681E-03	    1.256510E-02	
    1.951412E-03	    1.249810E-02	
    2.483019E-03	    1.240382E-02	
    3.051091E-03	    1.227697E-02	
    3.654119E-03	    1.211187E-02	
    4.289241E-03	    1.190268E-02	
    4.952015E-03	    1.164369E-02	
    5.636248E-03	    1.132973E-02	
    6.333940E-03	    1.095671E-02	
    7.035388E-03	    1.052217E-02	
    7.729496E-03	    1.002589E-02	
    8.404315E-03	    9.470369E-03	
    9.047785E-03	    8.861171E-03	
    9.648617E-03	    8.206944E-03	
    1.019720E-02	    7.519131E-03	
    1.068637E-02	    6.811323E-03	
    1.111197E-02	    6.098335E-03	
    1.147302E-02	    5.395139E-03	
    1.177151E-02	    4.715785E-03	
    1.201199E-02	    4.072500E-03	
    1.220075E-02	    3.475031E-03	
    1.234517E-02	    2.930307E-03	
    1.245290E-02	    2.442398E-03	
    1.253128E-02	    2.012715E-03	
    1.258695E-02	    1.640382E-03	
    1.262557E-02	    1.322696E-03	
    1.265178E-02	    1.055621E-03	
    1.266920E-02	    8.342520E-04	
    1.268055E-02	    6.532338E-04	
    1.268783E-02	    5.071064E-04	
    1.269242E-02	    3.905746E-04	
    1.269528E-02	    2.987022E-04	
    1.269706E-02	    2.270367E-04	
    1.269815E-02	    1.716749E-04	
    1.269882E-02	    1.292807E-04	
    1.269924E-02	    9.706557E-05	
    1.269950E-02	    7.274632E-05	
    1.269959E-02	    6.295815E-05	
   -1.269904E-02	    6.295071E-05	
   -1.269886E-02	    7.273723E-05	
   -1.269838E-02	    9.705180E-05	
   -1.269768E-02	    1.292594E-04	
   -1.269663E-02	    1.716417E-04	
   -1.269505E-02	    2.269840E-04	
   -1.269265E-02	    2.986181E-04	
   -1.268898E-02	    3.904397E-04	
   -1.268336E-02	    5.068901E-04	
   -1.267480E-02	    6.528890E-04	
   -1.266186E-02	    8.337070E-04	
   -1.264251E-02	    1.054769E-03	
   -1.261399E-02	    1.321384E-03	
   -1.257262E-02	    1.638394E-03	
   -1.251379E-02	    2.009757E-03	
   -1.243181E-02	    2.438081E-03	
   -1.232010E-02	    2.924139E-03	
   -1.217138E-02	    3.466408E-03	
   -1.197811E-02	    4.060714E-03	
   -1.173309E-02	    4.700043E-03	
   -1.143020E-02	    5.374602E-03	
   -1.106512E-02	    6.072168E-03	
   -1.063607E-02	    6.778754E-03	
   -1.014423E-02	    7.479520E-03	
   -9.593944E-03	    8.159833E-03	
   -8.992454E-03	    8.806326E-03	
   -8.349409E-03	    9.407798E-03	
   -7.676056E-03	    9.955831E-03	
   -6.984357E-03	    1.044507E-02	
   -6.286114E-03	    1.087317E-02	
   -5.592253E-03	    1.124045E-02	
   -4.912298E-03	    1.154944E-02	
   -4.254081E-03	    1.180423E-02	
   -3.623643E-03	    1.200996E-02	
   -3.025301E-03	    1.217228E-02	
   -2.461815E-03	    1.229698E-02	
   -1.934623E-03	    1.238964E-02	
   -1.444082E-03	    1.245549E-02	
   -9.897148E-04	    1.249923E-02	
   -5.704268E-04	    1.252503E-02	
   -1.846902E-04	    1.253651E-02	
    1.846902E-04	    1.253651E-02	
    5.704268E-04	    1.252503E-02	
    9.897148E-04	    1.249923E-02	
    1.444082E-03	    1.245549E-02	
    1.934623E-03	    1.238964E-02	
    2.461815E-03	    1.229698E-02	
    3.025301E-03	    1.217228E-02	
    3.623643E-03	    1.200996E-02	
    4.254081E-03	    1.180423E-02	
    4.912298E-03	    1.154944E-02	
    5.592253E-03	    1.124045E-02	
    6.286114E-03	    1.087317E-02	
    6.984357E-03	    1.044507E-02	
    7.676056E-03	    9.955831E-03	
    8.349409E-03	    9.407798E-03	
    8.992454E-03	    8.806326E-03	
    9.593944E-03	    8.159833E-03	
    1.014423E-02	    7.479520E-03	
    1.063607E-02	    6.778754E-03	
    1.106512E-02	    6.072168E-03	
    1.143020E-02	    5.374602E-03	
    1.173309E-02	    4.700043E-03	
    1.197811E-02	    4.060714E-03	
    1.217138E-02	    3.466408E-03	
    1.232010E-02	    2.924139E-03	
    1.243181E-02	    2.438081E-03	
    1.251379E-02	    2.009757E-03	
    1.257262E-02	    1.638394E-03	
    1.261399E-02	    1.321384E-03	
    1.264251E-02	    1.054769E-03	
    1.266186E-02	    8.337070E-04	
    1.267480E-02	    6.528890E-04	
    1.268336E-02	    5.068901E-04	
    1.268898E-02	    3.904397E-04	
    1.269265E-02	    2.986181E-04	
    1.269505E-02	    2.269840E-04	
    1.269663E-02	    1.716417E-04	
    1.269768E-02	    1.292594E-04	
    1.269838E-02	    9.705180E-05	
    1.269886E-02	    7.273723E-05	
    1.269904E-02	    6.295071E-05	
   -1.269838E-02	    6.293554E-05	
   -1.269810E-02	    7.271911E-05	
   -1.269737E-02	    9.702568E-05	
   -1.269633E-02	    1.292212E-04	
   -1.269484E-02	    1.715850E-04	
   -1.269268E-02	    2.268986E-04	
   -1.268953E-02	    2.984881E-04	
   -1.268490E-02	    3.902403E-04	
   -1.267807E-02	    5.065827E-04	
   -1.266799E-02	    6.524145E-04	
   -1.265317E-02	    8.329771E-04	
   -1.263154E-02	    1.053654E-03	
   -1.260027E-02	    1.319698E-03	
   -1.255568E-02	    1.635876E-03	
   -1.249310E-02	    2.006055E-03	
   -1.240689E-02	    2.432734E-03	
   -1.229050E-02	    2.916560E-03	
   -1.213672E-02	    3.455882E-03	
   -1.193817E-02	    4.046408E-03	
   -1.168784E-02	    4.681028E-03	
   -1.137981E-02	    5.349897E-03	
   -1.101004E-02	    6.040800E-03	
   -1.057700E-02	    6.739832E-03	
   -1.008211E-02	    7.432307E-03	
   -9.529879E-03	    8.103811E-03	
   -8.927683E-03	    8.741241E-03	
   -8.285193E-03	    9.333676E-03	
   -7.613609E-03	    9.872968E-03	
   -6.924768E-03	    1.035400E-02	
   -6.230304E-03	    1.077459E-02	
   -5.540941E-03	    1.113521E-02	
   -4.865998E-03	    1.143842E-02	
   -4.213109E-03	    1.168833E-02	
   -3.588141E-03	    1.189004E-02	
   -2.995264E-03	    1.204915E-02	
   -2.437125E-03	    1.217135E-02	
   -1.915075E-03	    1.226214E-02	
   -1.429414E-03	    1.232664E-02	
   -9.796271E-04	    1.236949E-02	
   -5.646008E-04	    1.239476E-02	
   -1.828022E-04	    1.240600E-02	
    1.828022E-04	    1.240600E-02	
    5.646008E-04	    1.239476E-02	
    9.796271E-04	    1.236949E-02	
    1.429414E-03	    1.232664E-02	
    1.915075E-03	    1.226214E-02	
    2.437125E-03	    1.217135E-02	
    2.995264E-03	    1.204915E-02	
    3.588141E-03	    1.189004E-02	
    4.213109E-03	    1.168833E-02	
    4.865998E-03	    1.143842E-02	
    5.540941E-03	    1.113521E-02	
    6.230304E-03	    1.077459E-02	
    6.924768E-03	    1.035400E-02	
    7.613609E-03	    9.872968E-03	
    8.285193E-03	    9.333676E-03	
    8.927683E-03	    8.741241E-03	
    9.529879E-03	    8.103811E-03	
    1.008211E-02	    7.432307E-03	
    1.057700E-02	    6.739832E-03	
    1.101004E-02	    6.040800E-03	
    1.137981E-02	    5.349897E-03	
    1.168784E-02	    4.681028E-03	
    1.193817E-02	    4.046408E-03	
    1.213672E-02	    3.455882E-03	
    1.229050E-02	    2.916560E-03	
    1.240689E-02	    2.432734E-03	
    1.249310E-02	    2.006055E-03	
    1.255568E-02	    1.635876E-03	
    1.260027E-02	    1.319698E-03	
    1.263154E-02	    1.053654E-03	
    1.265317E-02	    8.329771E-04	
    1.266799E-02	    6.524145E-04	
    1.267807E-02	    5.065827E-04	
    1.268490E-02	    3.902403E-04	
    1.268953E-02	    2.984881E-04	
    1.269268E-02	    2.268986E-04	
    1.269484E-02	    1.715850E-04	
    1.269633E-02	    1.292212E-04	
    1.269737E-02	    9.702568E-05	
    1.269810E-02	    7.271911E-05	
    1.269838E-02	    6.293554E-05	
   -1.269760E-02	    6.290867E-05	
   -1.269720E-02	    7.268737E-05	
   -1.269617E-02	    9.698104E-05	
   -1.269473E-02	    1.291577E-04	
   -1.269272E-02	    1.714936E-04	
   -1.268987E-02	    2.267655E-04	
   -1.268584E-02	    2.982922E-04	
   -1.268007E-02	    3.899493E-04	
   -1.267181E-02	    5.061475E-04	
   -1.265993E-02	    6.517614E-04	
   -1.264290E-02	    8.319968E-04	
   -1.261857E-02	    1.052188E-03	
   -1.258407E-02	    1.317520E-03	
   -1.253568E-02	    1.632673E-03	
   -1.246871E-02	    2.001407E-03	
   -1.237753E-02	    2.426089E-03	
   -1.225564E-02	    2.907225E-03	
   -1.209596E-02	    3.443016E-03	
   -1.189125E-02	    4.029031E-03	
   -1.163473E-02	    4.658055E-03	
   -1.132075E-02	    5.320186E-03	
   -1.094556E-02	    6.003229E-03	
   -1.050794E-02	    6.693378E-03	
   -1.000956E-02	    7.376131E-03	
   -9.455161E-03	    8.037335E-03	
   -8.852227E-03	    8.664193E-03	
   -8.210464E-03	    9.246110E-03	
   -7.541008E-03	    9.775247E-03	
   -6.855550E-03	    1.024675E-02	
   -6.165525E-03	    1.065867E-02	
   -5.481422E-03	    1.101157E-02	
   -4.812321E-03	    1.130811E-02	
   -4.165630E-03	    1.155239E-02	
   -3.547015E-03	    1.174947E-02	
   -2.960479E-03	    1.190487E-02	
   -2.408539E-03	    1.202419E-02	
   -1.892447E-03	    1.211282E-02	
   -1.412436E-03	    1.217578E-02	
   -9.679517E-04	    1.221760E-02	
   -5.578582E-04	    1.224227E-02	
   -1.806171E-04	    1.225323E-02	
    1.806171E-04	    1.225323E-02	
    5.578582E-04	    1.224227E-02	
    9.679517E-04	    1.221760E-02	
    1.412436E-03	    1.217578E-02	
    1.892447E-03	    1.211282E-02	
    2.408539E-03	    1.202419E-02	
    2.960479E-03	    1.190487E-02	
    3.547015E-03	    1.174947E-02	
    4.165630E-03	    1.155239E-02	
    4.812321E-03	    1.130811E-02	
    5.481422E-03	    1.101157E-02	
    6.165525E-03	    1.065867E-02	
    6.855550E-03	    1.024675E-02	
    7.541008E-03	    9.775247E-03	
    8.210464E-03	    9.246110E-03	
    8.852227E-03	    8.664193E-03	
    9.455161E-03	    8.037335E-03	
    1.000956E-02	    7.376131E-03	
    1.050794E-02	    6.693378E-03	
    1.094556E-02	    6.003229E-03	
    1.132075E-02	    5.320186E-03	
    1.163473E-02	    4.658055E-03	
    1.189125E-02	    4.029031E-03	
    1.209596E-02	    3.443016E-03	
    1.225564E-02	    2.907225E-03	
    1.237753E-02	    2.426089E-03	
    1.246871E-02	    2.001407E-03	
    1.253568E-02	    1.632673E-03	
    1.258407E-02	    1.317520E-03	
    1.261857E-02	    1.052188E-03	
    1.264290E-02	    8.319968E-04	
    1.265993E-02	    6.517614E-04	
    1.267181E-02	    5.061475E-04	
    1.268007E-02	    3.899493E-04	
    1.268584E-02	    2.982922E-04	
    1.268987E-02	    2.267655E-04	
    1.269272E-02	    1.714936E-04	
    1.269473E-02	    1.291577E-04	
    1.269617E-02	    9.698104E-05	
    1.269720E-02	    7.268737E-05	
    1.269760E-02	    6.290867E-05	
   -1.269668E-02	    6.286454E-05	
   -1.269613E-02	    7.263557E-05	
   -1.269475E-02	    9.690921E-05	
   -1.269284E-02	    1.290573E-04	
   -1.269021E-02	    1.713518E-04	
   -1.268656E-02	    2.265637E-04	
   -1.268148E-02	    2.980022E-04	
   -1.267438E-02	    3.895291E-04	
   -1.266443E-02	    5.055346E-04	
   -1.265045E-02	    6.508631E-04	
   -1.263081E-02	    8.306780E-04	
   -1.260331E-02	    1.050254E-03	
   -1.256502E-02	    1.314697E-03	
   -1.251217E-02	    1.628586E-03	
   -1.244006E-02	    1.995551E-03	
   -1.234306E-02	    2.417812E-03	
   -1.221477E-02	    2.895707E-03	
   -1.204822E-02	    3.427269E-03	
   -1.183637E-02	    4.007911E-03	
   -1.157268E-02	    4.630300E-03	
   -1.125185E-02	    5.284481E-03	
   -1.087045E-02	    5.958284E-03	
   -1.042760E-02	    6.638029E-03	
   -9.925300E-03	    7.309436E-03	
   -9.368496E-03	    7.958656E-03	
   -8.764822E-03	    8.573249E-03	
   -8.124009E-03	    9.142994E-03	
   -7.457108E-03	    9.660409E-03	
   -6.775641E-03	    1.012094E-02	
   -6.090804E-03	    1.052287E-02	
   -5.412820E-03	    1.086692E-02	
   -4.750493E-03	    1.115580E-02	
   -4.110969E-03	    1.139362E-02	
   -3.499688E-03	    1.158540E-02	
   -2.920463E-03	    1.173656E-02	
   -2.375661E-03	    1.185259E-02	
   -1.866426E-03	    1.193875E-02	
   -1.392916E-03	    1.199995E-02	
   -9.545291E-04	    1.204060E-02	
   -5.501070E-04	    1.206457E-02	
   -1.781053E-04	    1.207523E-02	
    1.781053E-04	    1.207523E-02	
    5.501070E-04	    1.206457E-02	
    9.545291E-04	    1.204060E-02	
    1.392916E-03	    1.199995E-02	
    1.866426E-03	    1.193875E-02	
    2.375661E-03	    1.185259E-02	
    2.920463E-03	    1.173656E-02	
    3.499688E-03	    1.158540E-02	
    4.110969E-03	    1.139362E-02	
    4.750493E-03	    1.115580E-02	
    5.412820E-03	    1.086692E-02	
    6.090804E-03	    1.052287E-02	
    6.775641E-03	    1.012094E-02	
    7.457108E-03	    9.660409E-03	
    8.124009E-03	    9.142994E-03	
    8.764822E-03	    8.573249E-03	
    9.368496E-03	    7.958656E-03	
    9.925300E-03	    7.309436E-03	
    1.042760E-02	    6.638029E-03	
    1.087045E-02	    5.958284E-03	
    1.125185E-02	    5.284481E-03	
    1.157268E-02	    4.630300E-03	
    1.183637E-02	    4.007911E-03	
    1.204822E-02	    3.427269E-03	
    1.221477E-02	    2.895707E-03	
    1.234306E-02	    2.417812E-03	
    1.244006E-02	    1.995551E-03	
    1.251217E-02	    1.628586E-03	
    1.256502E-02	    1.314697E-03	
    1.260331E-02	    1.050254E-03	
    1.263081E-02	    8.306780E-04	
    1.265045E-02	    6.508631E-04	
    1.266443E-02	    5.055346E-04	
    1.267438E-02	    3.895291E-04	
    1.268148E-02	    2.980022E-04	
    1.268656E-02	    2.265637E-04	
    1.269021E-02	    1.713518E-04	
    1.269284E-02	    1.290573E-04	
    1.269475E-02	    9.690921E-05	
    1.269613E-02	    7.263557E-05	
    1.269668E-02	    6.286454E-05	
   -1.269560E-02	    6.279543E-05	
   -1.269488E-02	    7.255475E-05	
   -1.269308E-02	    9.679821E-05	
   -1.269062E-02	    1.289038E-04	
   -1.268727E-02	    1.711383E-04	
   -1.268267E-02	    2.262645E-04	
   -1.267637E-02	    2.975799E-04	
   -1.266770E-02	    3.889288E-04	
   -1.265577E-02	    5.046763E-04	
   -1.263931E-02	    6.496304E-04	
   -1.261662E-02	    8.289030E-04	
   -1.258541E-02	    1.047699E-03	
   -1.254269E-02	    1.311030E-03	
   -1.248464E-02	    1.623354E-03	
   -1.240653E-02	    1.988155E-03	
   -1.230279E-02	    2.407478E-03	
   -1.216706E-02	    2.881472E-03	
   -1.199257E-02	    3.407978E-03	
   -1.177248E-02	    3.982235E-03	
   -1.150058E-02	    4.596785E-03	
   -1.117191E-02	    5.241616E-03	
   -1.078346E-02	    5.904605E-03	
   -1.033472E-02	    6.572226E-03	
   -9.828033E-03	    7.230463E-03	
   -9.268619E-03	    7.865822E-03	
   -8.664248E-03	    8.466275E-03	
   -8.024668E-03	    9.022032E-03	
   -7.360828E-03	    9.526009E-03	
   -6.684046E-03	    9.973998E-03	
   -6.005243E-03	    1.036452E-02	
   -5.334333E-03	    1.069848E-02	
   -4.679806E-03	    1.097865E-02	
   -4.048514E-03	    1.120915E-02	
   -3.445638E-03	    1.139491E-02	
   -2.874780E-03	    1.154126E-02	
   -2.338138E-03	    1.165355E-02	
   -1.836735E-03	    1.173692E-02	
   -1.370646E-03	    1.179612E-02	
   -9.392173E-04	    1.183543E-02	
   -5.412653E-04	    1.185862E-02	
   -1.752402E-04	    1.186893E-02	
    1.752402E-04	    1.186893E-02	
    5.412653E-04	    1.185862E-02	
    9.392173E-04	    1.183543E-02	
    1.370646E-03	    1.179612E-02	
    1.836735E-03	    1.173692E-02	
    2.338138E-03	    1.165355E-02	
    2.874780E-03	    1.154126E-02	
    3.445638E-03	    1.139491E-02	
    4.048514E-03	    1.120915E-02	
    4.679806E-03	    1.097865E-02	
    5.334333E-03	    1.069848E-02	
    6.005243E-03	    1.036452E-02	
    6.684046E-03	    9.973998E-03	
    7.360828E-03	    9.526009E-03	
    8.024668E-03	    9.022032E-03	
    8.664248E-03	    8.466275E-03	
    9.268619E-03	    7.865822E-03	
    9.828033E-03	    7.230463E-03	
    1.033472E-02	    6.572226E-03	
    1.078346E-02	    5.904605E-03	
    1.117191E-02	    5.241616E-03	
    1.150058E-02	    4.596785E-03	
    1.177248E-02	    3.982235E-03	
    1.199257E-02	    3.407978E-03	
    1.216706E-02	    2.881472E-03	
    1.230279E-02	    2.407478E-03	
    1.240653E-02	    1.988155E-03	
    1.248464E-02	    1.623354E-03	
    1.254269E-02	    1.311030E-03	
    1.258541E-02	    1.047699E-03	
    1.261662E-02	    8.289030E-04	
    1.263931E-02	    6.496304E-04	
    1.265577E-02	    5.046763E-04	
    1.266770E-02	    3.889288E-04	
    1.267637E-02	    2.975799E-04	
    1.268267E-02	    2.262645E-04	
    1.268727E-02	    1.711383E-04	
    1.269062E-02	    1.289038E-04	
    1.269308E-02	    9.679821E-05	
    1.269488E-02	    7.255475E-05	
    1.269560E-02	    6.279543E-05	
   -1.269433E-02	    6.269079E-05	
   -1.269342E-02	    7.243273E-05	
   -1.269113E-02	    9.663170E-05	
   -1.268803E-02	    1.286755E-04	
   -1.268382E-02	    1.708238E-04	
   -1.267812E-02	    2.258289E-04	
   -1.267038E-02	    2.969734E-04	
   -1.265989E-02	    3.880800E-04	
   -1.264564E-02	    5.034824E-04	
   -1.262629E-02	    6.479447E-04	
   -1.260005E-02	    8.265173E-04	
   -1.256453E-02	    1.044322E-03	
   -1.251666E-02	    1.306259E-03	
   -1.245257E-02	    1.616647E-03	
   -1.236752E-02	    1.978798E-03	
   -1.225598E-02	    2.394559E-03	
   -1.211169E-02	    2.863865E-03	
   -1.192807E-02	    3.384339E-03	
   -1.169857E-02	    3.951033E-03	
   -1.141732E-02	    4.556352E-03	
   -1.107977E-02	    5.190240E-03	
   -1.068338E-02	    5.840638E-03	
   -1.022807E-02	    6.494211E-03	
   -9.716569E-03	    7.137259E-03	
   -9.154376E-03	    7.756697E-03	
   -8.549410E-03	    8.340972E-03	
   -7.911425E-03	    8.880776E-03	
   -7.251236E-03	    9.369477E-03	
   -6.579923E-03	    9.803241E-03	
   -5.908091E-03	    1.018087E-02	
   -5.245301E-03	    1.050344E-02	
   -4.599687E-03	    1.077379E-02	
   -3.977774E-03	    1.099603E-02	
   -3.384452E-03	    1.117502E-02	
   -2.823086E-03	    1.131597E-02	
   -2.295693E-03	    1.142407E-02	
   -1.803158E-03	    1.150430E-02	
   -1.345465E-03	    1.156127E-02	
   -9.219061E-04	    1.159909E-02	
   -5.312698E-04	    1.162139E-02	
   -1.720013E-04	    1.163130E-02	
    1.720013E-04	    1.163130E-02	
    5.312698E-04	    1.162139E-02	
    9.219061E-04	    1.159909E-02	
    1.345465E-03	    1.156127E-02	
    1.803158E-03	    1.150430E-02	
    2.295693E-03	    1.142407E-02	
    2.823086E-03	    1.131597E-02	
    3.384452E-03	    1.117502E-02	
    3.977774E-03	    1.099603E-02	
    4.599687E-03	    1.077379E-02	
    5.245301E-03	    1.050344E-02	
    5.908091E-03	    1.018087E-02	
    6.579923E-03	    9.803241E-03	
    7.251236E-03	    9.369477E-03	
    7.911425E-03	    8.880776E-03	
    8.549410E-03	    8.340972E-03	
    9.154376E-03	    7.756697E-03	
    9.716569E-03	    7.137259E-03	
    1.022807E-02	    6.494211E-03	
    1.068338E-02	    5.840638E-03	
    1.107977E-02	    5.190240E-03	
    1.141732E-02	    4.556352E-03	
    1.169857E-02	    3.951033E-03	
    1.192807E-02	    3.384339E-03	
    1.211169E-02	    2.863865E-03	
    1.225598E-02	    2.394559E-03	
    1.236752E-02	    1.978798E-03	
    1.245257E-02	    1.616647E-03	
    1.251666E-02	    1.306259E-03	
    1.256453E-02	    1.044322E-03	
    1.260005E-02	    8.265173E-04	
    1.262629E-02	    6.479447E-04	
    1.264564E-02	    5.034824E-04	
    1.265989E-02	    3.880800E-04	
    1.267038E-02	    2.969734E-04	
    1.267812E-02	    2.258289E-04	
    1.268382E-02	    1.708238E-04	
    1.268803E-02	    1.286755E-04	
    1.269113E-02	    9.663170E-05	
    1.269342E-02	    7.243273E-05	
    1.269433E-02	    6.269079E-05	
   -1.269286E-02	    6.253652E-05	
   -1.269172E-02	    7.225319E-05	
   -1.268886E-02	    9.638785E-05	
   -1.268501E-02	    1.283432E-04	
   -1.267981E-02	    1.703693E-04	
   -1.267282E-02	    2.252052E-04	
   -1.266343E-02	    2.961142E-04	
   -1.265080E-02	    3.868921E-04	
   -1.263387E-02	    5.018342E-04	
   -1.261117E-02	    6.456511E-04	
   -1.258081E-02	    8.233198E-04	
   -1.254029E-02	    1.039863E-03	
   -1.248648E-02	    1.300053E-03	
   -1.241542E-02	    1.608045E-03	
   -1.232240E-02	    1.966955E-03	
   -1.220191E-02	    2.378405E-03	
   -1.204785E-02	    2.842087E-03	
   -1.185383E-02	    3.355388E-03	
   -1.161366E-02	    3.913157E-03	
   -1.132185E-02	    4.507661E-03	
   -1.097437E-02	    5.128808E-03	
   -1.056914E-02	    5.764636E-03	
   -1.010661E-02	    6.402044E-03	
   -9.589909E-03	    7.027702E-03	
   -9.024834E-03	    7.629001E-03	
   -8.419455E-03	    8.194922E-03	
   -7.783510E-03	    8.716700E-03	
   -7.127654E-03	    9.188197E-03	
   -6.462683E-03	    9.605989E-03	
   -5.798841E-03	    9.969177E-03	
   -5.145293E-03	    1.027901E-02	
   -4.509775E-03	    1.053842E-02	
   -3.898447E-03	    1.075147E-02	
   -3.315881E-03	    1.092294E-02	
   -2.765182E-03	    1.105787E-02	
   -2.248166E-03	    1.116132E-02	
   -1.765571E-03	    1.123808E-02	
   -1.317283E-03	    1.129256E-02	
   -9.025338E-04	    1.132872E-02	
   -5.200851E-04	    1.135005E-02	
   -1.683771E-04	    1.135952E-02	
    1.683771E-04	    1.135952E-02	
    5.200851E-04	    1.135005E-02	
    9.025338E-04	    1.132872E-02	
    1.317283E-03	    1.129256E-02	
    1.765571E-03	    1.123808E-02	
    2.248166E-03	    1.116132E-02	
    2.765182E-03	    1.105787E-02	
    3.315881E-03	    1.092294E-02	
    3.898447E-03	    1.075147E-02	
    4.509775E-03	    1.053842E-02	
    5.145293E-03	    1.027901E-02	
    5.798841E-03	    9.969177E-03	
    6.462683E-03	    9.605989E-03	
    7.127654E-03	    9.188197E-03	
    7.783510E-03	    8.716700E-03	
    8.419455E-03	    8.194922E-03	
    9.024834E-03	    7.629001E-03	
    9.589909E-03	    7.027702E-03	
    1.010661E-02	    6.402044E-03	
    1.056914E-02	    5.764636E-03	
    1.097437E-02	    5.128808E-03	
    1.132185E-02	    4.507661E-03	
    1.161366E-02	    3.913157E-03	
    1.185383E-02	    3.355388E-03	
    1.204785E-02	    2.842087E-03	
    1.220191E-02	    2.378405E-03	
    1.232240E-02	    1.966955E-03	
    1.241542E-02	    1.608045E-03	
    1.248648E-02	    1.300053E-03	
    1.254029E-02	    1.039863E-03	
    1.258081E-02	    8.233198E-04	
    1.261117E-02	    6.456511E-04	
    1.263387E-02	    5.018342E-04	
    1.265080E-02	    3.868921E-04	
    1.266343E-02	    2.961142E-04	
    1.267282E-02	    2.252052E-04	
    1.267981E-02	    1.703693E-04	
    1.268501E-02	    1.283432E-04	
    1.268886E-02	    9.638785E-05	
    1.269172E-02	    7.225319E-05	
    1.269286E-02	    6.253652E-05	
   -1.269116E-02	    6.231413E-05	
   -1.268975E-02	    7.199475E-05	
   -1.268624E-02	    9.603811E-05	
   -1.268152E-02	    1.278688E-04	
   -1.267518E-02	    1.697242E-04	
   -1.266670E-02	    2.243260E-04	
   -1.265538E-02	    2.949134E-04	
   -1.264031E-02	    3.852480E-04	
   -1.262027E-02	    4.995785E-04	
   -1.259372E-02	    6.425508E-04	
   -1.255861E-02	    8.190545E-04	
   -1.251236E-02	    1.033996E-03	
   -1.245172E-02	    1.291998E-03	
   -1.237271E-02	    1.597029E-03	
   -1.227059E-02	    1.951980E-03	
   -1.213992E-02	    2.358224E-03	
   -1.197478E-02	    2.815184E-03	
   -1.176906E-02	    3.319990E-03	
   -1.151691E-02	    3.867277E-03	
   -1.121334E-02	    4.449179E-03	
   -1.085485E-02	    5.055592E-03	
   -1.043994E-02	    5.674681E-03	
   -9.969589E-03	    6.293636E-03	
   -9.447377E-03	    6.899557E-03	
   -8.879409E-03	    7.480379E-03	
   -8.273895E-03	    8.025683E-03	
   -7.640534E-03	    8.527298E-03	
   -6.989780E-03	    8.979628E-03	
   -6.332102E-03	    9.379686E-03	
   -5.677337E-03	    9.726887E-03	
   -5.034204E-03	    1.002267E-02	
   -4.410005E-03	    1.027001E-02	
   -3.810496E-03	    1.047295E-02	
   -3.239908E-03	    1.063614E-02	
   -2.701062E-03	    1.076449E-02	
   -2.195558E-03	    1.086284E-02	
   -1.723979E-03	    1.093578E-02	
   -1.286104E-03	    1.098754E-02	
   -8.811051E-04	    1.102190E-02	
   -5.077141E-04	    1.104215E-02	
   -1.643688E-04	    1.105115E-02	
    1.643688E-04	    1.105115E-02	
    5.077141E-04	    1.104215E-02	
    8.811051E-04	    1.102190E-02	
    1.286104E-03	    1.098754E-02	
    1.723979E-03	    1.093578E-02	
    2.195558E-03	    1.086284E-02	
    2.701062E-03	    1.076449E-02	
    3.239908E-03	    1.063614E-02	
    3.810496E-03	    1.047295E-02	
    4.410005E-03	    1.027001E-02	
    5.034204E-03	    1.002267E-02	
    5.677337E-03	    9.726887E-03	
    6.332102E-03	    9.379686E-03	
    6.989780E-03	    8.979628E-03	
    7.640534E-03	    8.527298E-03	
    8.273895E-03	    8.025683E-03	
    8.879409E-03	    7.480379E-03	
    9.447377E-03	    6.899557E-03	
    9.969589E-03	    6.293636E-03	
    1.043994E-02	    5.674681E-03	
    1.085485E-02	    5.055592E-03	
    1.121334E-02	    4.449179E-03	
    1.151691E-02	    3.867277E-03	
    1.176906E-02	    3.319990E-03	
    1.197478E-02	    2.815184E-03	
    1.213992E-02	    2.358224E-03	
    1.227059E-02	    1.951980E-03	
    1.237271E-02	    1.597029E-03	
    1.245172E-02	    1.291998E-03	
    1.251236E-02	    1.033996E-03	
    1.255861E-02	    8.190545E-04	
    1.259372E-02	    6.425508E-04	
    1.262027E-02	    4.995785E-04	
    1.264031E-02	    3.852480E-04	
    1.265538E-02	    2.949134E-04	
    1.266670E-02	    2.243260E-04	
    1.267518E-02	    1.697242E-04	
    1.268152E-02	    1.278688E-04	
    1.268624E-02	    9.603811E-05	
    1.268975E-02	    7.199475E-05	
    1.269116E-02	    6.231413E-05	
   -1.268920E-02	    6.199998E-05	
   -1.268749E-02	    7.163007E-05	
   -1.268323E-02	    9.554596E-05	
   -1.267750E-02	    1.272035E-04	
   -1.266986E-02	    1.688237E-04	
   -1.265967E-02	    2.231056E-04	
   -1.264615E-02	    2.932578E-04	
   -1.262826E-02	    3.829997E-04	
   -1.260469E-02	    4.965226E-04	
   -1.257372E-02	    6.383948E-04	
   -1.253320E-02	    8.134021E-04	
   -1.248042E-02	    1.026315E-03	
   -1.241204E-02	    1.281585E-03	
   -1.232400E-02	    1.582966E-03	
   -1.221159E-02	    1.933100E-03	
   -1.206948E-02	    2.333080E-03	
   -1.189193E-02	    2.782040E-03	
   -1.167314E-02	    3.276837E-03	
   -1.140772E-02	    3.811889E-03	
   -1.109122E-02	    4.379211E-03	
   -1.072071E-02	    4.968711E-03	
   -1.029535E-02	    5.568735E-03	
   -9.816684E-03	    6.166818E-03	
   -9.288765E-03	    6.750562E-03	
   -8.718011E-03	    7.308512E-03	
   -8.112753E-03	    7.830910E-03	
   -7.482620E-03	    8.310236E-03	
   -6.837819E-03	    8.741468E-03	
   -6.188446E-03	    9.122081E-03	
   -5.543879E-03	    9.451809E-03	
   -4.912353E-03	    9.732267E-03	
   -4.300693E-03	    9.966486E-03	
   -3.714226E-03	    1.015845E-02	
   -3.156810E-03	    1.031269E-02	
   -2.630971E-03	    1.043391E-02	