Title="Fields"
Variables="X""Y""Velocity""Phi""Effective Viscosity""Dynamic Viscosity""Density""Eddy Viscosity""K""Omega""S""F1SST""distance""GEN"
Zone I=52 J=52 F=POINT
   -1.125409E-02	    5.177469E-05	    0.000000E+00	    0.000000E+00	    1.000000E-03	    1.000000E-03	    1.000000E+03	    0.000000E+00	    0.000000E+00	    1.220399E+09	    0.000000E+00	    1.000000E+00	    0.000000E+00	    0.000000E+00	
   -1.124863E-02	    6.519537E-05	    0.000000E+00	    0.000000E+00	    1.000000E-03	    1.000000E-03	    1.000000E+03	    0.000000E+00	    0.000000E+00	    1.220399E+09	    0.000000E+00	    1.000000E+00	    0.000000E+00	    0.000000E+00	
   -1.123308E-02	    1.030796E-04	    0.000000E+00	    0.000000E+00	    1.000000E-03	    1.000000E-03	    1.000000E+03	    0.000000E+00	    0.000000E+00	    4.881993E+08	    0.000000E+00	    1.000000E+00	    0.000000E+00	    0.000000E+00	
   -1.120875E-02	    1.616737E-04	    0.000000E+00	    0.000000E+00	    1.000000E-03	    1.000000E-03	    1.000000E+03	    0.000000E+00	    0.000000E+00	    1.984612E+08	    0.000000E+00	    1.000000E+00	    0.000000E+00	    0.000000E+00	
   -1.117125E-02	    2.503210E-04	    0.000000E+00	    0.000000E+00	    1.000000E-03	    1.000000E-03	    1.000000E+03	    0.000000E+00	    0.000000E+00	    8.278996E+07	    0.000000E+00	    1.000000E+00	    0.000000E+00	    0.000000E+00	
   -1.111452E-02	    3.808697E-04	    0.000000E+00	    0.000000E+00	    1.000000E-03	    1.000000E-03	    1.000000E+03	    0.000000E+00	    0.000000E+00	    3.576393E+07	    0.000000E+00	    1.000000E+00	    0.000000E+00	    0.000000E+00	
   -1.103037E-02	    5.671609E-04	    0.000000E+00	    0.000000E+00	    1.000000E-03	    1.000000E-03	    1.000000E+03	    0.000000E+00	    0.000000E+00	    1.612955E+07	    0.000000E+00	    1.000000E+00	    0.000000E+00	    0.000000E+00	
   -1.090824E-02	    8.236642E-04	    0.000000E+00	    0.000000E+00	    1.000000E-03	    1.000000E-03	    1.000000E+03	    0.000000E+00	    0.000000E+00	    7.648659E+06	    0.000000E+00	    1.000000E+00	    0.000000E+00	    0.000000E+00	
   -1.073507E-02	    1.163127E-03	    0.000000E+00	    0.000000E+00	    1.000000E-03	    1.000000E-03	    1.000000E+03	    0.000000E+00	    0.000000E+00	    3.836179E+06	    0.000000E+00	    1.000000E+00	    0.000000E+00	    0.000000E+00	
   -1.049569E-02	    1.593402E-03	    0.000000E+00	    0.000000E+00	    1.000000E-03	    1.000000E-03	    1.000000E+03	    0.000000E+00	    0.000000E+00	    2.044501E+06	    0.000000E+00	    1.000000E+00	    0.000000E+00	    0.000000E+00	
   -1.017423E-02	    2.114064E-03	    0.000000E+00	    0.000000E+00	    1.000000E-03	    1.000000E-03	    1.000000E+03	    0.000000E+00	    0.000000E+00	    1.161729E+06	    0.000000E+00	    1.000000E+00	    0.000000E+00	    0.000000E+00	
   -9.756461E-03	    2.713839E-03	    0.000000E+00	    0.000000E+00	    1.000000E-03	    1.000000E-03	    1.000000E+03	    0.000000E+00	    0.000000E+00	    7.051672E+05	    0.000000E+00	    1.000000E+00	    0.000000E+00	    0.000000E+00	
   -9.233326E-03	    3.370061E-03	    0.000000E+00	    0.000000E+00	    1.000000E-03	    1.000000E-03	    1.000000E+03	    0.000000E+00	    0.000000E+00	    4.574195E+05	    0.000000E+00	    1.000000E+00	    0.000000E+00	    0.000000E+00	
   -8.604399E-03	    4.050985E-03	    0.000000E+00	    0.000000E+00	    1.000000E-03	    1.000000E-03	    1.000000E+03	    0.000000E+00	    0.000000E+00	    3.166681E+05	    0.000000E+00	    1.000000E+00	    0.000000E+00	    0.000000E+00	
   -7.880100E-03	    4.720764E-03	    0.000000E+00	    0.000000E+00	    1.000000E-03	    1.000000E-03	    1.000000E+03	    0.000000E+00	    0.000000E+00	    2.332568E+05	    0.000000E+00	    1.000000E+00	    0.000000E+00	    0.000000E+00	
   -7.081376E-03	    5.345733E-03	    0.000000E+00	    0.000000E+00	    1.000000E-03	    1.000000E-03	    1.000000E+03	    0.000000E+00	    0.000000E+00	    1.819572E+05	    0.000000E+00	    1.000000E+00	    0.000000E+00	    0.000000E+00	
   -6.236643E-03	    5.899922E-03	    0.000000E+00	    0.000000E+00	    1.000000E-03	    1.000000E-03	    1.000000E+03	    0.000000E+00	    0.000000E+00	    1.494177E+05	    0.000000E+00	    1.000000E+00	    0.000000E+00	    0.000000E+00	
   -5.377047E-03	    6.368114E-03	    0.000000E+00	    0.000000E+00	    1.000000E-03	    1.000000E-03	    1.000000E+03	    0.000000E+00	    0.000000E+00	    1.282825E+05	    0.000000E+00	    1.000000E+00	    0.000000E+00	    0.000000E+00	
   -4.531704E-03	    6.745958E-03	    0.000000E+00	    0.000000E+00	    1.000000E-03	    1.000000E-03	    1.000000E+03	    0.000000E+00	    0.000000E+00	    1.143347E+05	    0.000000E+00	    1.000000E+00	    0.000000E+00	    0.000000E+00	
   -3.724289E-03	    7.037836E-03	    0.000000E+00	    0.000000E+00	    1.000000E-03	    1.000000E-03	    1.000000E+03	    0.000000E+00	    0.000000E+00	    1.050621E+05	    0.000000E+00	    1.000000E+00	    0.000000E+00	    0.000000E+00	
   -2.971501E-03	    7.253739E-03	    0.000000E+00	    0.000000E+00	    1.000000E-03	    1.000000E-03	    1.000000E+03	    0.000000E+00	    0.000000E+00	    9.891098E+04	    0.000000E+00	    1.000000E+00	    0.000000E+00	    0.000000E+00	
   -2.283162E-03	    7.406261E-03	    0.000000E+00	    0.000000E+00	    1.000000E-03	    1.000000E-03	    1.000000E+03	    0.000000E+00	    0.000000E+00	    9.488585E+04	    0.000000E+00	    1.000000E+00	    0.000000E+00	    0.000000E+00	
   -1.663308E-03	    7.508319E-03	    0.000000E+00	    0.000000E+00	    1.000000E-03	    1.000000E-03	    1.000000E+03	    0.000000E+00	    0.000000E+00	    9.232831E+04	    0.000000E+00	    1.000000E+00	    0.000000E+00	    0.000000E+00	
   -1.111667E-03	    7.571746E-03	    0.000000E+00	    0.000000E+00	    1.000000E-03	    1.000000E-03	    1.000000E+03	    0.000000E+00	    0.000000E+00	    9.079067E+04	    0.000000E+00	    1.000000E+00	    0.000000E+00	    0.000000E+00	
   -6.250971E-04	    7.606618E-03	    0.000000E+00	    0.000000E+00	    1.000000E-03	    1.000000E-03	    1.000000E+03	    0.000000E+00	    0.000000E+00	    8.996160E+04	    0.000000E+00	    1.000000E+00	    0.000000E+00	    0.000000E+00	
   -1.987711E-04	    7.621083E-03	    0.000000E+00	    0.000000E+00	    1.000000E-03	    1.000000E-03	    1.000000E+03	    0.000000E+00	    0.000000E+00	    8.962105E+04	    0.000000E+00	    1.000000E+00	    0.000000E+00	    0.000000E+00	
    1.987711E-04	    7.621083E-03	    0.000000E+00	    0.000000E+00	    1.000000E-03	    1.000000E-03	    1.000000E+03	    0.000000E+00	    0.000000E+00	    8.962105E+04	    0.000000E+00	    1.000000E+00	    0.000000E+00	    0.000000E+00	
    6.250971E-04	    7.606618E-03	    0.000000E+00	    0.000000E+00	    1.000000E-03	    1.000000E-03	    1.000000E+03	    0.000000E+00	    0.000000E+00	    8.996160E+04	    0.000000E+00	    1.000000E+00	    0.000000E+00	    0.000000E+00	
    1.111667E-03	    7.571746E-03	    0.000000E+00	    0.000000E+00	    1.000000E-03	    1.000000E-03	    1.000000E+03	    0.000000E+00	    0.000000E+00	    9.079067E+04	    0.000000E+00	    1.000000E+00	    0.000000E+00	    0.000000E+00	
    1.663308E-03	    7.508319E-03	    0.000000E+00	    0.000000E+00	    1.000000E-03	    1.000000E-03	    1.000000E+03	    0.000000E+00	    0.000000E+00	    9.232831E+04	    0.000000E+00	    1.000000E+00	    0.000000E+00	    0.000000E+00	
    2.283162E-03	    7.406261E-03	    0.000000E+00	    0.000000E+00	    1.000000E-03	    1.000000E-03	    1.000000E+03	    0.000000E+00	    0.000000E+00	    9.488585E+04	    0.000000E+00	    1.000000E+00	    0.000000E+00	    0.000000E+00	
    2.971501E-03	    7.253739E-03	    0.000000E+00	    0.000000E+00	    1.000000E-03	    1.000000E-03	    1.000000E+03	    0.000000E+00	    0.000000E+00	    9.891098E+04	    0.000000E+00	    1.000000E+00	    0.000000E+00	    0.000000E+00	
    3.724289E-03	    7.037836E-03	    0.000000E+00	    0.000000E+00	    1.000000E-03	    1.000000E-03	    1.000000E+03	    0.000000E+00	    0.000000E+00	    1.050621E+05	    0.000000E+00	    1.000000E+00	    0.000000E+00	    0.000000E+00	
    4.531704E-03	    6.745958E-03	    0.000000E+00	    0.000000E+00	    1.000000E-03	    1.000000E-03	    1.000000E+03	    0.000000E+00	    0.000000E+00	    1.143347E+05	    0.000000E+00	    1.000000E+00	    0.000000E+00	    0.000000E+00	
    5.377047E-03	    6.368114E-03	    0.000000E+00	    0.000000E+00	    1.000000E-03	    1.000000E-03	    1.000000E+03	    0.000000E+00	    0.000000E+00	    1.282825E+05	    0.000000E+00	    1.000000E+00	    0.000000E+00	    0.000000E+00	
    6.236643E-03	    5.899922E-03	    0.000000E+00	    0.000000E+00	    1.000000E-03	    1.000000E-03	    1.000000E+03	    0.000000E+00	    0.000000E+00	    1.494177E+05	    0.000000E+00	    1.000000E+00	    0.000000E+00	    0.000000E+00	
    7.081376E-03	    5.345733E-03	    0.000000E+00	    0.000000E+00	    1.000000E-03	    1.000000E-03	    1.000000E+03	    0.000000E+00	    0.000000E+00	    1.819572E+05	    0.000000E+00	    1.000000E+00	    0.000000E+00	    0.000000E+00	
    7.880100E-03	    4.720764E-03	    0.000000E+00	    0.000000E+00	    1.000000E-03	    1.000000E-03	    1.000000E+03	    0.000000E+00	    0.000000E+00	    2.332568E+05	    0.000000E+00	    1.000000E+00	    0.000000E+00	    0.000000E+00	
    8.604399E-03	    4.050985E-03	    0.000000E+00	    0.000000E+00	    1.000000E-03	    1.000000E-03	    1.000000E+03	    0.000000E+00	    0.000000E+00	    3.166681E+05	    0.000000E+00	    1.000000E+00	    0.000000E+00	    0.000000E+00	
    9.233326E-03	    3.370061E-03	    0.000000E+00	    0.000000E+00	    1.000000E-03	    1.000000E-03	    1.000000E+03	    0.000000E+00	    0.000000E+00	    4.574195E+05	    0.000000E+00	    1.000000E+00	    0.000000E+00	    0.000000E+00	
    9.756461E-03	    2.713839E-03	    0.000000E+00	    0.000000E+00	    1.000000E-03	    1.000000E-03	    1.000000E+03	    0.000000E+00	    0.000000E+00	    7.051672E+05	    0.000000E+00	    1.000000E+00	    0.000000E+00	    0.000000E+00	
    1.017423E-02	    2.114064E-03	    0.000000E+00	    0.000000E+00	    1.000000E-03	    1.000000E-03	    1.000000E+03	    0.000000E+00	    0.000000E+00	    1.161729E+06	    0.000000E+00	    1.000000E+00	    0.000000E+00	    0.000000E+00	
    1.049569E-02	    1.593402E-03	    0.000000E+00	    0.000000E+00	    1.000000E-03	    1.000000E-03	    1.000000E+03	    0.000000E+00	    0.000000E+00	    2.044501E+06	    0.000000E+00	    1.000000E+00	    0.000000E+00	    0.000000E+00	
    1.073507E-02	    1.163127E-03	    0.000000E+00	    0.000000E+00	    1.000000E-03	    1.000000E-03	    1.000000E+03	    0.000000E+00	    0.000000E+00	    3.836179E+06	    0.000000E+00	    1.000000E+00	    0.000000E+00	    0.000000E+00	
    1.090824E-02	    8.236642E-04	    0.000000E+00	    0.000000E+00	    1.000000E-03	    1.000000E-03	    1.000000E+03	    0.000000E+00	    0.000000E+00	    7.648659E+06	    0.000000E+00	    1.000000E+00	    0.000000E+00	    0.000000E+00	
    1.103037E-02	    5.671609E-04	    0.000000E+00	    0.000000E+00	    1.000000E-03	    1.000000E-03	    1.000000E+03	    0.000000E+00	    0.000000E+00	    1.612955E+07	    0.000000E+00	    1.000000E+00	    0.000000E+00	    0.000000E+00	
    1.111452E-02	    3.808697E-04	    0.000000E+00	    0.000000E+00	    1.000000E-03	    1.000000E-03	    1.000000E+03	    0.000000E+00	    0.000000E+00	    3.576393E+07	    0.000000E+00	    1.000000E+00	    0.000000E+00	    0.000000E+00	
    1.117125E-02	    2.503210E-04	    0.000000E+00	    0.000000E+00	    1.000000E-03	    1.000000E-03	    1.000000E+03	    0.000000E+00	    0.000000E+00	    8.278996E+07	    0.000000E+00	    1.000000E+00	    0.000000E+00	    0.000000E+00	
    1.120875E-02	    1.616737E-04	    0.000000E+00	    0.000000E+00	    1.000000E-03	    1.000000E-03	    1.000000E+03	    0.000000E+00	    0.000000E+00	    1.984612E+08	    0.000000E+00	    1.000000E+00	    0.000000E+00	    0.000000E+00	
    1.123308E-02	    1.030796E-04	    0.000000E+00	    0.000000E+00	    1.000000E-03	    1.000000E-03	    1.000000E+03	    0.000000E+00	    0.000000E+00	    4.881993E+08	    0.000000E+00	    1.000000E+00	    0.000000E+00	    0.000000E+00	
    1.124863E-02	    6.519537E-05	    0.000000E+00	    0.000000E+00	    1.000000E-03	    1.000000E-03	    1.000000E+03	    0.000000E+00	    0.000000E+00	    1.220399E+09	    0.000000E+00	    1.000000E+00	    0.000000E+00	    0.000000E+00	
    1.125409E-02	    5.177469E-05	    0.000000E+00	    0.000000E+00	    1.000000E-03	    1.000000E-03	    1.000000E+03	    0.000000E+00	    0.000000E+00	    0.000000E+00	    0.000000E+00	    1.000000E+00	    0.000000E+00	    0.000000E+00	
   -1.125383E-02	    5.166570E-05	    0.000000E+00	    0.000000E+00	    1.000000E-03	    1.000000E-03	    1.000000E+03	    0.000000E+00	    0.000000E+00	    0.000000E+00	    0.000000E+00	    1.000000E+00	    0.000000E+00	    0.000000E+00	
   -1.124829E-02	    6.505774E-05	    1.729356E-04	   -1.000000E+00	    1.600000E-03	    1.600000E-03	    8.010000E+02	    1.862744E-15	    2.838066E-09	    1.220399E+09	    1.508358E+05	    1.000000E+00	    3.618577E-07	    1.503891E+02	
   -1.123256E-02	    1.028602E-04	    4.306527E-04	   -1.000000E+00	    1.600000E-03	    1.600000E-03	    8.010000E+02	    9.960897E-15	    6.071039E-09	    4.881993E+08	    3.740142E+05	    1.000000E+00	    5.721240E-07	    2.191160E+02	
   -1.120792E-02	    1.613253E-04	    7.718960E-04	   -1.000000E+00	    1.600000E-03	    1.600000E-03	    8.010000E+02	    7.881423E-14	    1.952755E-08	    1.984612E+08	    4.884314E+05	    1.000000E+00	    8.973273E-07	    2.863362E+02	
   -1.116998E-02	    2.497714E-04	    1.239101E-03	   -1.000000E+00	    1.600000E-03	    1.600000E-03	    8.010000E+02	    4.877420E-13	    5.041216E-08	    8.278996E+07	    5.250142E+05	    1.000000E+00	    1.389312E-06	    3.081032E+02	
   -1.111258E-02	    3.800108E-04	    1.878896E-03	   -1.000000E+00	    1.600000E-03	    1.600000E-03	    8.010000E+02	    2.604243E-12	    1.162771E-07	    3.576393E+07	    5.214165E+05	    1.000000E+00	    2.113811E-06	    3.064867E+02	
   -1.102752E-02	    5.658339E-04	    2.745312E-03	   -1.000000E+00	    1.600000E-03	    1.600000E-03	    8.010000E+02	    1.239075E-11	    2.495097E-07	    1.612955E+07	    5.019624E+05	    1.000000E+00	    3.147586E-06	    2.958530E+02	
   -1.090414E-02	    8.216410E-04	    3.895990E-03	   -1.000000E+00	    1.600000E-03	    1.600000E-03	    8.010000E+02	    5.302770E-11	    5.063555E-07	    7.648659E+06	    4.792775E+05	    1.000000E+00	    4.570841E-06	    2.836286E+02	
   -1.072937E-02	    1.160090E-03	    5.383254E-03	   -1.000000E+00	    1.600000E-03	    1.600000E-03	    8.010000E+02	    2.040657E-10	    9.773187E-07	    3.836179E+06	    4.587957E+05	    1.000000E+00	    6.454154E-06	    2.730745E+02	
   -1.048807E-02	    1.588930E-03	    7.239194E-03	   -1.000000E+00	    1.600000E-03	    1.600000E-03	    8.010000E+02	    7.026151E-10	    1.793380E-06	    2.044501E+06	    4.420012E+05	    1.000000E+00	    8.840872E-06	    2.651142E+02	
   -1.016442E-02	    2.107631E-03	    9.459141E-03	   -1.000000E+00	    1.600000E-03	    1.600000E-03	    8.010000E+02	    2.150284E-09	    3.118661E-06	    1.161729E+06	    4.285965E+05	    1.000000E+00	    1.172833E-05	    2.595733E+02	
   -9.744393E-03	    2.704840E-03	    1.198970E-02	   -1.000000E+00	    1.600001E-03	    1.600000E-03	    8.010000E+02	    5.815302E-09	    5.119551E-06	    7.051672E+05	    4.177309E+05	    1.000000E+00	    1.505368E-05	    2.558795E+02	
   -9.219148E-03	    3.357883E-03	    1.474044E-02	   -1.000000E+00	    1.600002E-03	    1.600000E-03	    8.010000E+02	    1.387822E-08	    7.925305E-06	    4.574195E+05	    4.093023E+05	    1.000000E+00	    1.869096E-05	    2.538938E+02	
   -8.588521E-03	    4.035094E-03	    1.756291E-02	   -1.000000E+00	    1.600005E-03	    1.600000E-03	    8.010000E+02	    2.916971E-08	    1.153198E-05	    3.166681E+05	    4.019830E+05	    1.000000E+00	    2.246400E-05	    2.526220E+02	
   -7.863160E-03	    4.700811E-03	    2.032825E-02	   -1.000000E+00	    1.600010E-03	    1.600000E-03	    8.010000E+02	    5.434816E-08	    1.582657E-05	    2.332568E+05	    3.964124E+05	    1.000000E+00	    2.617414E-05	    2.523163E+02	
   -7.064143E-03	    5.321624E-03	    2.286676E-02	   -1.000000E+00	    1.600016E-03	    1.600000E-03	    8.010000E+02	    9.010292E-08	    2.046801E-05	    1.819572E+05	    3.910196E+05	    1.000000E+00	    2.963505E-05	    2.517838E+02	
   -6.219896E-03	    5.871832E-03	    2.512622E-02	   -1.000000E+00	    1.600024E-03	    1.600000E-03	    8.010000E+02	    1.351323E-07	    2.520745E-05	    1.494177E+05	    3.874469E+05	    1.000000E+00	    3.270317E-05	    2.521207E+02	
   -5.361466E-03	    6.336445E-03	    2.704124E-02	   -1.000000E+00	    1.600033E-03	    1.600000E-03	    8.010000E+02	    1.853957E-07	    2.969165E-05	    1.282825E+05	    3.850768E+05	    1.000000E+00	    3.529460E-05	    2.528273E+02	
   -4.517796E-03	    6.711256E-03	    2.856692E-02	   -1.000000E+00	    1.600042E-03	    1.600000E-03	    8.010000E+02	    2.351429E-07	    3.356428E-05	    1.143347E+05	    3.828577E+05	    1.000000E+00	    3.738554E-05	    2.530996E+02	
   -3.712365E-03	    7.000703E-03	    2.972380E-02	   -1.000000E+00	    1.600050E-03	    1.600000E-03	    8.010000E+02	    2.796273E-07	    3.667696E-05	    1.050621E+05	    3.807396E+05	    1.000000E+00	    3.900051E-05	    2.529630E+02	
   -2.961697E-03	    7.214758E-03	    3.058072E-02	   -1.000000E+00	    1.600057E-03	    1.600000E-03	    8.010000E+02	    3.165880E-07	    3.909366E-05	    9.891098E+04	    3.793097E+05	    1.000000E+00	    4.019498E-05	    2.529612E+02	
   -2.275471E-03	    7.365949E-03	    3.118661E-02	   -1.000000E+00	    1.600062E-03	    1.600000E-03	    8.010000E+02	    3.449306E-07	    4.086022E-05	    9.488585E+04	    3.783608E+05	    1.000000E+00	    4.103872E-05	    2.530041E+02	
   -1.657628E-03	    7.467105E-03	    3.159196E-02	   -1.000000E+00	    1.600066E-03	    1.600000E-03	    8.010000E+02	    3.649735E-07	    4.206915E-05	    9.232831E+04	    3.777447E+05	    1.000000E+00	    4.160326E-05	    2.530465E+02	
   -1.107839E-03	    7.529967E-03	    3.184359E-02	   -1.000000E+00	    1.600068E-03	    1.600000E-03	    8.010000E+02	    3.778736E-07	    4.283071E-05	    9.079067E+04	    3.773629E+05	    1.000000E+00	    4.195411E-05	    2.530740E+02	
   -6.229347E-04	    7.564526E-03	    3.198150E-02	   -1.000000E+00	    1.600069E-03	    1.600000E-03	    8.010000E+02	    3.851053E-07	    4.325180E-05	    8.996160E+04	    3.771451E+05	    1.000000E+00	    4.214699E-05	    2.530839E+02	
   -1.980822E-04	    7.578861E-03	    3.203798E-02	   -1.000000E+00	    1.600070E-03	    1.600000E-03	    8.010000E+02	    3.881179E-07	    4.342513E-05	    8.962105E+04	    3.770383E+05	    1.000000E+00	    4.222700E-05	    2.530766E+02	
    1.980822E-04	    7.578861E-03	    3.203798E-02	   -1.000000E+00	    1.600070E-03	    1.600000E-03	    8.010000E+02	    3.881179E-07	    4.342513E-05	    8.962105E+04	    3.770383E+05	    1.000000E+00	    4.222700E-05	    2.530766E+02	
    6.229347E-04	    7.564526E-03	    3.198150E-02	   -1.000000E+00	    1.600069E-03	    1.600000E-03	    8.010000E+02	    3.851053E-07	    4.325180E-05	    8.996160E+04	    3.771451E+05	    1.000000E+00	    4.214699E-05	    2.530839E+02	
    1.107839E-03	    7.529967E-03	    3.184359E-02	   -1.000000E+00	    1.600068E-03	    1.600000E-03	    8.010000E+02	    3.778736E-07	    4.283071E-05	    9.079067E+04	    3.773629E+05	    1.000000E+00	    4.195411E-05	    2.530740E+02	
    1.657628E-03	    7.467105E-03	    3.159196E-02	   -1.000000E+00	    1.600066E-03	    1.600000E-03	    8.010000E+02	    3.649735E-07	    4.206915E-05	    9.232831E+04	    3.777447E+05	    1.000000E+00	    4.160326E-05	    2.530465E+02	
    2.275471E-03	    7.365949E-03	    3.118661E-02	   -1.000000E+00	    1.600062E-03	    1.600000E-03	    8.010000E+02	    3.449306E-07	    4.086022E-05	    9.488585E+04	    3.783608E+05	    1.000000E+00	    4.103872E-05	    2.530041E+02	
    2.961697E-03	    7.214758E-03	    3.058072E-02	   -1.000000E+00	    1.600057E-03	    1.600000E-03	    8.010000E+02	    3.165880E-07	    3.909366E-05	    9.891098E+04	    3.793097E+05	    1.000000E+00	    4.019498E-05	    2.529612E+02	
    3.712365E-03	    7.000703E-03	    2.972380E-02	   -1.000000E+00	    1.600050E-03	    1.600000E-03	    8.010000E+02	    2.796273E-07	    3.667696E-05	    1.050621E+05	    3.807396E+05	    1.000000E+00	    3.900051E-05	    2.529630E+02	
    4.517796E-03	    6.711256E-03	    2.856692E-02	   -1.000000E+00	    1.600042E-03	    1.600000E-03	    8.010000E+02	    2.351429E-07	    3.356428E-05	    1.143347E+05	    3.828577E+05	    1.000000E+00	    3.738554E-05	    2.530996E+02	
    5.361466E-03	    6.336445E-03	    2.704124E-02	   -1.000000E+00	    1.600033E-03	    1.600000E-03	    8.010000E+02	    1.853957E-07	    2.969165E-05	    1.282825E+05	    3.850767E+05	    1.000000E+00	    3.529460E-05	    2.528273E+02	
    6.219896E-03	    5.871832E-03	    2.512622E-02	   -1.000000E+00	    1.600024E-03	    1.600000E-03	    8.010000E+02	    1.351323E-07	    2.520745E-05	    1.494177E+05	    3.874468E+05	    1.000000E+00	    3.270317E-05	    2.521207E+02	
    7.064143E-03	    5.321624E-03	    2.286676E-02	   -1.000000E+00	    1.600016E-03	    1.600000E-03	    8.010000E+02	    9.010292E-08	    2.046801E-05	    1.819572E+05	    3.910196E+05	    1.000000E+00	    2.963505E-05	    2.517838E+02	
    7.863160E-03	    4.700811E-03	    2.032825E-02	   -1.000000E+00	    1.600010E-03	    1.600000E-03	    8.010000E+02	    5.434816E-08	    1.582657E-05	    2.332568E+05	    3.964124E+05	    1.000000E+00	    2.617414E-05	    2.523163E+02	
    8.588521E-03	    4.035094E-03	    1.756291E-02	   -1.000000E+00	    1.600005E-03	    1.600000E-03	    8.010000E+02	    2.916971E-08	    1.153198E-05	    3.166681E+05	    4.019830E+05	    1.000000E+00	    2.246400E-05	    2.526220E+02	
    9.219148E-03	    3.357883E-03	    1.474044E-02	   -1.000000E+00	    1.600002E-03	    1.600000E-03	    8.010000E+02	    1.387822E-08	    7.925305E-06	    4.574195E+05	    4.093022E+05	    1.000000E+00	    1.869096E-05	    2.538938E+02	
    9.744393E-03	    2.704840E-03	    1.198970E-02	   -1.000000E+00	    1.600001E-03	    1.600000E-03	    8.010000E+02	    5.815302E-09	    5.119551E-06	    7.051672E+05	    4.177308E+05	    1.000000E+00	    1.505368E-05	    2.558795E+02	
    1.016442E-02	    2.107631E-03	    9.459139E-03	   -1.000000E+00	    1.600000E-03	    1.600000E-03	    8.010000E+02	    2.150283E-09	    3.118661E-06	    1.161729E+06	    4.285963E+05	    1.000000E+00	    1.172833E-05	    2.595732E+02	
    1.048807E-02	    1.588930E-03	    7.239192E-03	   -1.000000E+00	    1.600000E-03	    1.600000E-03	    8.010000E+02	    7.026149E-10	    1.793379E-06	    2.044501E+06	    4.420009E+05	    1.000000E+00	    8.840872E-06	    2.651141E+02	
    1.072937E-02	    1.160090E-03	    5.383251E-03	   -1.000000E+00	    1.600000E-03	    1.600000E-03	    8.010000E+02	    2.040656E-10	    9.773182E-07	    3.836179E+06	    4.587951E+05	    1.000000E+00	    6.454154E-06	    2.730743E+02	
    1.090414E-02	    8.216410E-04	    3.895987E-03	   -1.000000E+00	    1.600000E-03	    1.600000E-03	    8.010000E+02	    5.302770E-11	    5.063555E-07	    7.648659E+06	    4.792769E+05	    1.000000E+00	    4.570841E-06	    2.836285E+02	
    1.102752E-02	    5.658339E-04	    2.745314E-03	   -1.000000E+00	    1.600000E-03	    1.600000E-03	    8.010000E+02	    1.239079E-11	    2.495105E-07	    1.612955E+07	    5.019628E+05	    1.000000E+00	    3.147586E-06	    2.958539E+02	
    1.111258E-02	    3.800108E-04	    1.878900E-03	   -1.000000E+00	    1.600000E-03	    1.600000E-03	    8.010000E+02	    2.604272E-12	    1.162784E-07	    3.576393E+07	    5.214192E+05	    1.000000E+00	    2.113811E-06	    3.064894E+02	
    1.116998E-02	    2.497714E-04	    1.239105E-03	   -1.000000E+00	    1.600000E-03	    1.600000E-03	    8.010000E+02	    4.878697E-13	    5.042536E-08	    8.278996E+07	    5.250181E+05	    1.000000E+00	    1.389312E-06	    3.080866E+02	
    1.120792E-02	    1.613253E-04	    7.718980E-04	   -1.000000E+00	    1.600000E-03	    1.600000E-03	    8.010000E+02	    7.881484E-14	    1.952770E-08	    1.984612E+08	    4.884339E+05	    1.000000E+00	    8.973273E-07	    2.863379E+02	
    1.123256E-02	    1.028602E-04	    4.306534E-04	   -1.000000E+00	    1.600000E-03	    1.600000E-03	    8.010000E+02	    9.960937E-15	    6.071064E-09	    4.881993E+08	    3.740154E+05	    1.000000E+00	    5.721240E-07	    2.191169E+02	
    1.124829E-02	    6.505774E-05	    1.729358E-04	   -1.000000E+00	    1.600000E-03	    1.600000E-03	    8.010000E+02	    1.862748E-15	    2.838072E-09	    1.220399E+09	    1.508362E+05	    1.000000E+00	    3.618577E-07	    1.503894E+02	
    1.125383E-02	    5.166570E-05	    0.000000E+00	    0.000000E+00	    1.000000E-03	    1.000000E-03	    1.000000E+03	    0.000000E+00	    0.000000E+00	    7.609611E+05	    0.000000E+00	    1.000000E+00	    0.000000E+00	    0.000000E+00	
   -1.125322E-02	    5.140824E-05	    0.000000E+00	    0.000000E+00	    1.000000E-03	    1.000000E-03	    1.000000E+03	    0.000000E+00	    0.000000E+00	    7.609611E+05	    0.000000E+00	    1.000000E+00	    0.000000E+00	    0.000000E+00	
   -1.124752E-02	    6.473263E-05	    4.230100E-04	   -1.000000E+00	    1.600000E-03	    1.600000E-03	    8.010000E+02	    4.257899E-11	    4.045063E-08	    7.609611E+05	    8.964956E+04	    1.000000E+00	    1.199274E-06	    8.659545E-01	
   -1.123134E-02	    1.023422E-04	    1.053409E-03	   -1.000000E+00	    1.600000E-03	    1.600000E-03	    8.010000E+02	    1.064855E-14	    9.043133E-10	    6.802379E+07	    2.213557E+05	    4.219858E-04	    1.896104E-06	    2.357114E-09	
   -1.120602E-02	    1.605028E-04	    1.888045E-03	   -1.000000E+00	    1.600000E-03	    1.600000E-03	    8.010000E+02	    9.611524E-14	    3.319232E-09	    2.766164E+07	    2.889646E+05	    2.743167E-03	    2.973784E-06	    2.777075E-08	
   -1.116704E-02	    2.484748E-04	    3.030593E-03	   -1.000000E+00	    1.600000E-03	    1.600000E-03	    8.010000E+02	    6.995580E-13	    1.001610E-08	    1.146852E+07	    3.105330E+05	    3.482182E-01	    4.604031E-06	    2.078060E-07	
   -1.110813E-02	    3.779863E-04	    4.594839E-03	   -1.000000E+00	    1.600000E-03	    1.600000E-03	    8.010000E+02	    4.564616E-12	    2.965865E-08	    5.204508E+06	    3.083129E+05	    1.000000E+00	    7.004460E-06	    1.406798E-06	
   -1.102094E-02	    5.627091E-04	    6.712416E-03	   -1.000000E+00	    1.600000E-03	    1.600000E-03	    8.010000E+02	    2.909198E-11	    8.526982E-08	    2.347765E+06	    2.966825E+05	    1.000000E+00	    1.042902E-05	    8.630905E-06	
   -1.089470E-02	    8.168833E-04	    9.523357E-03	   -1.000000E+00	    1.600000E-03	    1.600000E-03	    8.010000E+02	    1.716118E-10	    2.385937E-07	    1.113638E+06	    2.831017E+05	    1.000000E+00	    1.514271E-05	    4.858355E-05	
   -1.071626E-02	    1.152961E-03	    1.315412E-02	   -1.000000E+00	    1.600000E-03	    1.600000E-03	    8.010000E+02	    9.175325E-10	    6.400504E-07	    5.587599E+05	    2.707773E+05	    1.000000E+00	    2.137811E-05	    2.484470E-04	
   -1.047052E-02	    1.578453E-03	    1.768102E-02	   -1.000000E+00	    1.600001E-03	    1.600000E-03	    8.010000E+02	    4.338813E-09	    1.613853E-06	    2.979378E+05	    2.605818E+05	    1.000000E+00	    2.927703E-05	    1.130616E-03	
   -1.014188E-02	    2.092591E-03	    2.309003E-02	   -1.000000E+00	    1.600003E-03	    1.600000E-03	    8.010000E+02	    1.777128E-08	    3.758237E-06	    1.693940E+05	    2.523359E+05	    1.000000E+00	    3.882841E-05	    4.484330E-03	
   -9.716674E-03	    2.683852E-03	    2.924801E-02	   -1.000000E+00	    1.600011E-03	    1.600000E-03	    8.010000E+02	    6.214509E-08	    7.982688E-06	    1.028904E+05	    2.455322E+05	    1.000000E+00	    4.982183E-05	    1.525862E-02	
   -9.186614E-03	    3.329540E-03	    3.593229E-02	   -1.000000E+00	    1.600033E-03	    1.600000E-03	    8.010000E+02	    1.851307E-07	    1.543657E-05	    6.678900E+04	    2.401055E+05	    1.000000E+00	    6.183858E-05	    4.445090E-02	
   -8.552126E-03	    3.998190E-03	    4.277985E-02	   -1.000000E+00	    1.600084E-03	    1.600000E-03	    8.010000E+02	    4.678881E-07	    2.702750E-05	    4.626966E+04	    2.352484E+05	    1.000000E+00	    7.429515E-05	    1.100699E-01	
   -7.824369E-03	    4.654564E-03	    4.947815E-02	   -1.000000E+00	    1.600182E-03	    1.600000E-03	    8.010000E+02	    1.013222E-06	    4.313889E-05	    3.410332E+04	    2.313258E+05	    1.000000E+00	    8.653545E-05	    2.343845E-01	
   -7.024716E-03	    5.265839E-03	    5.561597E-02	   -1.000000E+00	    1.600340E-03	    1.600000E-03	    8.010000E+02	    1.889153E-06	    6.277491E-05	    2.661653E+04	    2.273931E+05	    1.000000E+00	    9.794581E-05	    4.295804E-01	
   -6.181614E-03	    5.806929E-03	    6.107116E-02	   -1.000000E+00	    1.600561E-03	    1.600000E-03	    8.010000E+02	    3.114997E-06	    8.502952E-05	    2.186475E+04	    2.244506E+05	    1.000000E+00	    1.080550E-04	    6.991631E-01	
   -5.325874E-03	    6.263356E-03	    6.568864E-02	   -1.000000E+00	    1.600828E-03	    1.600000E-03	    8.010000E+02	    4.598202E-06	    1.077878E-04	    1.877648E+04	    2.221867E+05	    1.000000E+00	    1.165890E-04	    1.021659E+00	
   -4.486043E-03	    6.631240E-03	    6.936206E-02	   -1.000000E+00	    1.601106E-03	    1.600000E-03	    8.010000E+02	    6.142797E-06	    1.283580E-04	    1.673745E+04	    2.200627E+05	    1.000000E+00	    1.234718E-04	    1.351801E+00	
   -3.685156E-03	    6.915139E-03	    7.214354E-02	   -1.000000E+00	    1.601363E-03	    1.600000E-03	    8.010000E+02	    7.570450E-06	    1.453733E-04	    1.538139E+04	    2.181117E+05	    1.000000E+00	    1.287859E-04	    1.651204E+00	