Title="Fields"
Variables="X""Y""Velocity""Phi""Effective Viscosity""Dynamic Viscosity""Density"
Zone I=52 J=52 F=POINT
   -2.668002E-02	    1.258409E-04	    0.000000E+00	    0.000000E+00	    1.000000E-03	    1.000000E-03	    1.000000E+03	
   -2.669043E-02	    1.585994E-04	    0.000000E+00	    0.000000E+00	    1.000000E-03	    1.000000E-03	    1.000000E+03	
   -2.671967E-02	    2.513818E-04	    0.000000E+00	    0.000000E+00	    1.000000E-03	    1.000000E-03	    1.000000E+03	
   -2.676448E-02	    3.957945E-04	    0.000000E+00	    0.000000E+00	    1.000000E-03	    1.000000E-03	    1.000000E+03	
   -2.683129E-02	    6.164042E-04	    0.000000E+00	    0.000000E+00	    1.000000E-03	    1.000000E-03	    1.000000E+03	
   -2.692744E-02	    9.460404E-04	    0.000000E+00	    0.000000E+00	    1.000000E-03	    1.000000E-03	    1.000000E+03	
   -2.705978E-02	    1.426492E-03	    0.000000E+00	    0.000000E+00	    1.000000E-03	    1.000000E-03	    1.000000E+03	
   -2.723189E-02	    2.108152E-03	    0.000000E+00	    0.000000E+00	    1.000000E-03	    1.000000E-03	    1.000000E+03	
   -2.743970E-02	    3.048109E-03	    0.000000E+00	    0.000000E+00	    1.000000E-03	    1.000000E-03	    1.000000E+03	
   -2.766544E-02	    4.306066E-03	    0.000000E+00	    0.000000E+00	    1.000000E-03	    1.000000E-03	    1.000000E+03	
   -2.787105E-02	    5.937436E-03	    0.000000E+00	    0.000000E+00	    1.000000E-03	    1.000000E-03	    1.000000E+03	
   -2.799272E-02	    7.982990E-03	    0.000000E+00	    0.000000E+00	    1.000000E-03	    1.000000E-03	    1.000000E+03	
   -2.793989E-02	    1.045522E-02	    0.000000E+00	    0.000000E+00	    1.000000E-03	    1.000000E-03	    1.000000E+03	
   -2.760240E-02	    1.332342E-02	    0.000000E+00	    0.000000E+00	    1.000000E-03	    1.000000E-03	    1.000000E+03	
   -2.686806E-02	    1.650235E-02	    0.000000E+00	    0.000000E+00	    1.000000E-03	    1.000000E-03	    1.000000E+03	
   -2.564931E-02	    1.985153E-02	    0.000000E+00	    0.000000E+00	    1.000000E-03	    1.000000E-03	    1.000000E+03	
   -2.391088E-02	    2.319102E-02	    0.000000E+00	    0.000000E+00	    1.000000E-03	    1.000000E-03	    1.000000E+03	
   -2.168687E-02	    2.633254E-02	    0.000000E+00	    0.000000E+00	    1.000000E-03	    1.000000E-03	    1.000000E+03	
   -1.907774E-02	    2.911641E-02	    0.000000E+00	    0.000000E+00	    1.000000E-03	    1.000000E-03	    1.000000E+03	
   -1.622755E-02	    3.143965E-02	    0.000000E+00	    0.000000E+00	    1.000000E-03	    1.000000E-03	    1.000000E+03	
   -1.329170E-02	    3.326561E-02	    0.000000E+00	    0.000000E+00	    1.000000E-03	    1.000000E-03	    1.000000E+03	
   -1.040819E-02	    3.461517E-02	    0.000000E+00	    0.000000E+00	    1.000000E-03	    1.000000E-03	    1.000000E+03	
   -7.680851E-03	    3.554744E-02	    0.000000E+00	    0.000000E+00	    1.000000E-03	    1.000000E-03	    1.000000E+03	
   -5.175200E-03	    3.613911E-02	    0.000000E+00	    0.000000E+00	    1.000000E-03	    1.000000E-03	    1.000000E+03	
   -2.923111E-03	    3.646853E-02	    0.000000E+00	    0.000000E+00	    1.000000E-03	    1.000000E-03	    1.000000E+03	
   -9.312377E-04	    3.660604E-02	    0.000000E+00	    0.000000E+00	    1.000000E-03	    1.000000E-03	    1.000000E+03	
    9.312377E-04	    3.660604E-02	    0.000000E+00	    0.000000E+00	    1.000000E-03	    1.000000E-03	    1.000000E+03	
    2.923111E-03	    3.646853E-02	    0.000000E+00	    0.000000E+00	    1.000000E-03	    1.000000E-03	    1.000000E+03	
    5.175200E-03	    3.613911E-02	    0.000000E+00	    0.000000E+00	    1.000000E-03	    1.000000E-03	    1.000000E+03	
    7.680851E-03	    3.554744E-02	    0.000000E+00	    0.000000E+00	    1.000000E-03	    1.000000E-03	    1.000000E+03	
    1.040819E-02	    3.461517E-02	    0.000000E+00	    0.000000E+00	    1.000000E-03	    1.000000E-03	    1.000000E+03	
    1.329170E-02	    3.326561E-02	    0.000000E+00	    0.000000E+00	    1.000000E-03	    1.000000E-03	    1.000000E+03	
    1.622755E-02	    3.143965E-02	    0.000000E+00	    0.000000E+00	    1.000000E-03	    1.000000E-03	    1.000000E+03	
    1.907774E-02	    2.911641E-02	    0.000000E+00	    0.000000E+00	    1.000000E-03	    1.000000E-03	    1.000000E+03	
    2.168687E-02	    2.633254E-02	    0.000000E+00	    0.000000E+00	    1.000000E-03	    1.000000E-03	    1.000000E+03	
    2.391088E-02	    2.319102E-02	    0.000000E+00	    0.000000E+00	    1.000000E-03	    1.000000E-03	    1.000000E+03	
    2.564931E-02	    1.985153E-02	    0.000000E+00	    0.000000E+00	    1.000000E-03	    1.000000E-03	    1.000000E+03	
    2.686806E-02	    1.650235E-02	    0.000000E+00	    0.000000E+00	    1.000000E-03	    1.000000E-03	    1.000000E+03	
    2.760240E-02	    1.332342E-02	    0.000000E+00	    0.000000E+00	    1.000000E-03	    1.000000E-03	    1.000000E+03	
    2.793989E-02	    1.045522E-02	    0.000000E+00	    0.000000E+00	    1.000000E-03	    1.000000E-03	    1.000000E+03	
    2.799272E-02	    7.982990E-03	    0.000000E+00	    0.000000E+00	    1.000000E-03	    1.000000E-03	    1.000000E+03	
    2.787105E-02	    5.937436E-03	    0.000000E+00	    0.000000E+00	    1.000000E-03	    1.000000E-03	    1.000000E+03	
    2.766544E-02	    4.306066E-03	    0.000000E+00	    0.000000E+00	    1.000000E-03	    1.000000E-03	    1.000000E+03	
    2.743970E-02	    3.048109E-03	    0.000000E+00	    0.000000E+00	    1.000000E-03	    1.000000E-03	    1.000000E+03	
    2.723189E-02	    2.108152E-03	    0.000000E+00	    0.000000E+00	    1.000000E-03	    1.000000E-03	    1.000000E+03	
    2.705978E-02	    1.426492E-03	    0.000000E+00	    0.000000E+00	    1.000000E-03	    1.000000E-03	    1.000000E+03	
    2.692744E-02	    9.460404E-04	    0.000000E+00	    0.000000E+00	    1.000000E-03	    1.000000E-03	    1.000000E+03	
    2.683129E-02	    6.164042E-04	    0.000000E+00	    0.000000E+00	    1.000000E-03	    1.000000E-03	    1.000000E+03	
    2.676448E-02	    3.957945E-04	    0.000000E+00	    0.000000E+00	    1.000000E-03	    1.000000E-03	    1.000000E+03	
    2.671967E-02	    2.513818E-04	    0.000000E+00	    0.000000E+00	    1.000000E-03	    1.000000E-03	    1.000000E+03	
    2.669043E-02	    1.585994E-04	    0.000000E+00	    0.000000E+00	    1.000000E-03	    1.000000E-03	    1.000000E+03	
    2.668002E-02	    1.258409E-04	    0.000000E+00	    0.000000E+00	    1.000000E-03	    1.000000E-03	    1.000000E+03	
   -2.667899E-02	    1.261642E-04	    0.000000E+00	    0.000000E+00	    1.000000E-03	    1.000000E-03	    1.000000E+03	
   -2.668913E-02	    1.590053E-04	    3.103055E-05	   -1.000000E+00	    1.000000E-03	    1.640000E-03	    7.900000E+02	
   -2.671761E-02	    2.520179E-04	    9.911797E-05	   -1.000000E+00	    1.000000E-03	    1.640000E-03	    7.900000E+02	
   -2.676123E-02	    3.967785E-04	    1.868525E-04	   -1.000000E+00	    1.000000E-03	    1.640000E-03	    7.900000E+02	
   -2.682622E-02	    6.178949E-04	    3.097923E-04	   -1.000000E+00	    1.000000E-03	    1.640000E-03	    7.900000E+02	
   -2.691963E-02	    9.482323E-04	    4.868171E-04	   -1.000000E+00	    1.000000E-03	    1.640000E-03	    7.900000E+02	
   -2.704794E-02	    1.429586E-03	    7.408803E-04	   -1.000000E+00	    1.000000E-03	    1.640000E-03	    7.900000E+02	
   -2.721429E-02	    2.112284E-03	    1.099072E-03	   -1.000000E+00	    1.000000E-03	    1.640000E-03	    7.900000E+02	
   -2.741407E-02	    3.053203E-03	    1.591757E-03	   -1.000000E+00	    1.000000E-03	    1.640000E-03	    7.900000E+02	
   -2.762895E-02	    4.311601E-03	    2.250495E-03	   -1.000000E+00	    1.000000E-03	    1.640000E-03	    7.900000E+02	
   -2.782039E-02	    5.942098E-03	    3.104444E-03	   -1.000000E+00	    1.000000E-03	    1.640000E-03	    7.900000E+02	
   -2.792434E-02	    7.984257E-03	    4.174944E-03	   -1.000000E+00	    1.000000E-03	    1.640000E-03	    7.900000E+02	
   -2.785057E-02	    1.044897E-02	    5.468412E-03	   -1.000000E+00	    1.000000E-03	    1.640000E-03	    7.900000E+02	
   -2.749005E-02	    1.330379E-02	    6.968568E-03	   -1.000000E+00	    1.000000E-03	    1.640000E-03	    7.900000E+02	
   -2.673274E-02	    1.646205E-02	    8.630550E-03	   -1.000000E+00	    1.000000E-03	    1.640000E-03	    7.900000E+02	
   -2.549407E-02	    1.978284E-02	    1.038062E-02	   -1.000000E+00	    1.000000E-03	    1.640000E-03	    7.900000E+02	
   -2.374199E-02	    2.308726E-02	    1.212445E-02	   -1.000000E+00	    1.000000E-03	    1.640000E-03	    7.900000E+02	
   -2.151310E-02	    2.618966E-02	    1.376359E-02	   -1.000000E+00	    1.000000E-03	    1.640000E-03	    7.900000E+02	
   -1.890886E-02	    2.893392E-02	    1.521475E-02	   -1.000000E+00	    1.000000E-03	    1.640000E-03	    7.900000E+02	
   -1.607255E-02	    3.122055E-02	    1.642452E-02	   -1.000000E+00	    1.000000E-03	    1.640000E-03	    7.900000E+02	
   -1.315744E-02	    3.301547E-02	    1.737425E-02	   -1.000000E+00	    1.000000E-03	    1.640000E-03	    7.900000E+02	
   -1.029884E-02	    3.434081E-02	    1.807529E-02	   -1.000000E+00	    1.000000E-03	    1.640000E-03	    7.900000E+02	
   -7.598003E-03	    3.525571E-02	    1.855879E-02	   -1.000000E+00	    1.000000E-03	    1.640000E-03	    7.900000E+02	
   -5.118461E-03	    3.583610E-02	    1.886494E-02	   -1.000000E+00	    1.000000E-03	    1.640000E-03	    7.900000E+02	
   -2.890774E-03	    3.615914E-02	    1.903463E-02	   -1.000000E+00	    1.000000E-03	    1.640000E-03	    7.900000E+02	
   -9.208974E-04	    3.629397E-02	    1.910445E-02	   -1.000000E+00	    1.000000E-03	    1.640000E-03	    7.900000E+02	
    9.208974E-04	    3.629397E-02	    1.910445E-02	   -1.000000E+00	    1.000000E-03	    1.640000E-03	    7.900000E+02	
    2.890774E-03	    3.615914E-02	    1.903463E-02	   -1.000000E+00	    1.000000E-03	    1.640000E-03	    7.900000E+02	
    5.118461E-03	    3.583610E-02	    1.886494E-02	   -1.000000E+00	    1.000000E-03	    1.640000E-03	    7.900000E+02	
    7.598003E-03	    3.525571E-02	    1.855879E-02	   -1.000000E+00	    1.000000E-03	    1.640000E-03	    7.900000E+02	
    1.029884E-02	    3.434081E-02	    1.807529E-02	   -1.000000E+00	    1.000000E-03	    1.640000E-03	    7.900000E+02	
    1.315744E-02	    3.301547E-02	    1.737425E-02	   -1.000000E+00	    1.000000E-03	    1.640000E-03	    7.900000E+02	
    1.607255E-02	    3.122055E-02	    1.642452E-02	   -1.000000E+00	    1.000000E-03	    1.640000E-03	    7.900000E+02	
    1.890886E-02	    2.893392E-02	    1.521475E-02	   -1.000000E+00	    1.000000E-03	    1.640000E-03	    7.900000E+02	
    2.151310E-02	    2.618966E-02	    1.376359E-02	   -1.000000E+00	    1.000000E-03	    1.640000E-03	    7.900000E+02	
    2.374199E-02	    2.308726E-02	    1.212445E-02	   -1.000000E+00	    1.000000E-03	    1.640000E-03	    7.900000E+02	
    2.549407E-02	    1.978284E-02	    1.038062E-02	   -1.000000E+00	    1.000000E-03	    1.640000E-03	    7.900000E+02	
    2.673274E-02	    1.646205E-02	    8.630550E-03	   -1.000000E+00	    1.000000E-03	    1.640000E-03	    7.900000E+02	
    2.749005E-02	    1.330379E-02	    6.968568E-03	   -1.000000E+00	    1.000000E-03	    1.640000E-03	    7.900000E+02	
    2.785057E-02	    1.044897E-02	    5.468412E-03	   -1.000000E+00	    1.000000E-03	    1.640000E-03	    7.900000E+02	
    2.792434E-02	    7.984257E-03	    4.174944E-03	   -1.000000E+00	    1.000000E-03	    1.640000E-03	    7.900000E+02	
    2.782039E-02	    5.942098E-03	    3.104444E-03	   -1.000000E+00	    1.000000E-03	    1.640000E-03	    7.900000E+02	
    2.762895E-02	    4.311601E-03	    2.250495E-03	   -1.000000E+00	    1.000000E-03	    1.640000E-03	    7.900000E+02	
    2.741407E-02	    3.053203E-03	    1.591757E-03	   -1.000000E+00	    1.000000E-03	    1.640000E-03	    7.900000E+02	
    2.721429E-02	    2.112284E-03	    1.099072E-03	   -1.000000E+00	    1.000000E-03	    1.640000E-03	    7.900000E+02	
    2.704794E-02	    1.429586E-03	    7.408803E-04	   -1.000000E+00	    1.000000E-03	    1.640000E-03	    7.900000E+02	
    2.691963E-02	    9.482323E-04	    4.868171E-04	   -1.000000E+00	    1.000000E-03	    1.640000E-03	    7.900000E+02	
    2.682622E-02	    6.178949E-04	    3.097923E-04	   -1.000000E+00	    1.000000E-03	    1.640000E-03	    7.900000E+02	
    2.676123E-02	    3.967785E-04	    1.868525E-04	   -1.000000E+00	    1.000000E-03	    1.640000E-03	    7.900000E+02	
    2.671761E-02	    2.520179E-04	    9.911797E-05	   -1.000000E+00	    1.000000E-03	    1.640000E-03	    7.900000E+02	
    2.668913E-02	    1.590053E-04	    3.103055E-05	   -1.000000E+00	    1.000000E-03	    1.640000E-03	    7.900000E+02	
    2.667899E-02	    1.261642E-04	    0.000000E+00	    0.000000E+00	    1.000000E-03	    1.000000E-03	    1.000000E+03	
   -2.667659E-02	    1.268800E-04	    0.000000E+00	    0.000000E+00	    1.000000E-03	    1.000000E-03	    1.000000E+03	
   -2.668611E-02	    1.599037E-04	    1.028000E-04	   -1.000000E+00	    1.000000E-03	    1.640000E-03	    7.900000E+02	
   -2.671282E-02	    2.534251E-04	    3.283884E-04	   -1.000000E+00	    1.000000E-03	    1.640000E-03	    7.900000E+02	
   -2.675368E-02	    3.989530E-04	    6.190061E-04	   -1.000000E+00	    1.000000E-03	    1.640000E-03	    7.900000E+02	
   -2.681443E-02	    6.211835E-04	    1.026103E-03	   -1.000000E+00	    1.000000E-03	    1.640000E-03	    7.900000E+02	
   -2.690149E-02	    9.530553E-04	    1.612006E-03	   -1.000000E+00	    1.000000E-03	    1.640000E-03	    7.900000E+02	
   -2.702047E-02	    1.436366E-03	    2.452289E-03	   -1.000000E+00	    1.000000E-03	    1.640000E-03	    7.900000E+02	
   -2.717348E-02	    2.121273E-03	    3.635775E-03	   -1.000000E+00	    1.000000E-03	    1.640000E-03	    7.900000E+02	
   -2.735468E-02	    3.064149E-03	    5.261360E-03	   -1.000000E+00	    1.000000E-03	    1.640000E-03	    7.900000E+02	
   -2.754451E-02	    4.323199E-03	    7.430739E-03	   -1.000000E+00	    1.000000E-03	    1.640000E-03	    7.900000E+02	
   -2.770334E-02	    5.951204E-03	    1.023604E-02	   -1.000000E+00	    1.000000E-03	    1.640000E-03	    7.900000E+02	
   -2.776670E-02	    7.984946E-03	    1.374171E-02	   -1.000000E+00	    1.000000E-03	    1.640000E-03	    7.900000E+02	
   -2.764518E-02	    1.043170E-02	    1.796126E-02	   -1.000000E+00	    1.000000E-03	    1.640000E-03	    7.900000E+02	
   -2.723244E-02	    1.325509E-02	    2.283288E-02	   -1.000000E+00	    1.000000E-03	    1.640000E-03	    7.900000E+02	
   -2.642345E-02	    1.636538E-02	    2.820235E-02	   -1.000000E+00	    1.000000E-03	    1.640000E-03	    7.900000E+02	
   -2.514043E-02	    1.962087E-02	    3.382520E-02	   -1.000000E+00	    1.000000E-03	    1.640000E-03	    7.900000E+02	
   -2.335853E-02	    2.284530E-02	    3.939640E-02	   -1.000000E+00	    1.000000E-03	    1.640000E-03	    7.900000E+02	
   -2.111981E-02	    2.585907E-02	    4.460450E-02	   -1.000000E+00	    1.000000E-03	    1.640000E-03	    7.900000E+02	
   -1.852768E-02	    2.851406E-02	    4.919229E-02	   -1.000000E+00	    1.000000E-03	    1.640000E-03	    7.900000E+02	
   -1.572350E-02	    3.071857E-02	    5.300045E-02	   -1.000000E+00	    1.000000E-03	    1.640000E-03	    7.900000E+02	
   -1.285565E-02	    3.244413E-02	    5.597951E-02	   -1.000000E+00	    1.000000E-03	    1.640000E-03	    7.900000E+02	
   -1.005336E-02	    3.371549E-02	    5.817251E-02	   -1.000000E+00	    1.000000E-03	    1.640000E-03	    7.900000E+02	
   -7.412191E-03	    3.459176E-02	    5.968200E-02	   -1.000000E+00	    1.000000E-03	    1.640000E-03	    7.900000E+02	
   -4.991277E-03	    3.514707E-02	    6.063645E-02	   -1.000000E+00	    1.000000E-03	    1.640000E-03	    7.900000E+02	
   -2.818313E-03	    3.545596E-02	    6.116493E-02	   -1.000000E+00	    1.000000E-03	    1.640000E-03	    7.900000E+02	
   -8.977299E-04	    3.558484E-02	    6.138216E-02	   -1.000000E+00	    1.000000E-03	    1.640000E-03	    7.900000E+02	
    8.977299E-04	    3.558484E-02	    6.138216E-02	   -1.000000E+00	    1.000000E-03	    1.640000E-03	    7.900000E+02	
    2.818313E-03	    3.545596E-02	    6.116493E-02	   -1.000000E+00	    1.000000E-03	    1.640000E-03	    7.900000E+02	
    4.991277E-03	    3.514707E-02	    6.063645E-02	   -1.000000E+00	    1.000000E-03	    1.640000E-03	    7.900000E+02	
    7.412191E-03	    3.459176E-02	    5.968200E-02	   -1.000000E+00	    1.000000E-03	    1.640000E-03	    7.900000E+02	
    1.005336E-02	    3.371549E-02	    5.817251E-02	   -1.000000E+00	    1.000000E-03	    1.640000E-03	    7.900000E+02	
    1.285565E-02	    3.244413E-02	    5.597951E-02	   -1.000000E+00	    1.000000E-03	    1.640000E-03	    7.900000E+02	
    1.572350E-02	    3.071857E-02	    5.300045E-02	   -1.000000E+00	    1.000000E-03	    1.640000E-03	    7.900000E+02	
    1.852768E-02	    2.851406E-02	    4.919229E-02	   -1.000000E+00	    1.000000E-03	    1.640000E-03	    7.900000E+02	
    2.111981E-02	    2.585907E-02	    4.460450E-02	   -1.000000E+00	    1.000000E-03	    1.640000E-03	    7.900000E+02	
    2.335853E-02	    2.284530E-02	    3.939640E-02	   -1.000000E+00	    1.000000E-03	    1.640000E-03	    7.900000E+02	
    2.514043E-02	    1.962087E-02	    3.382520E-02	   -1.000000E+00	    1.000000E-03	    1.640000E-03	    7.900000E+02	
    2.642345E-02	    1.636538E-02	    2.820235E-02	   -1.000000E+00	    1.000000E-03	    1.640000E-03	    7.900000E+02	
    2.723244E-02	    1.325509E-02	    2.283288E-02	   -1.000000E+00	    1.000000E-03	    1.640000E-03	    7.900000E+02	
    2.764518E-02	    1.043170E-02	    1.796126E-02	   -1.000000E+00	    1.000000E-03	    1.640000E-03	    7.900000E+02	
    2.776670E-02	    7.984946E-03	    1.374171E-02	   -1.000000E+00	    1.000000E-03	    1.640000E-03	    7.900000E+02	
    2.770334E-02	    5.951204E-03	    1.023604E-02	   -1.000000E+00	    1.000000E-03	    1.640000E-03	    7.900000E+02	
    2.754451E-02	    4.323199E-03	    7.430739E-03	   -1.000000E+00	    1.000000E-03	    1.640000E-03	    7.900000E+02	
    2.735468E-02	    3.064149E-03	    5.261360E-03	   -1.000000E+00	    1.000000E-03	    1.640000E-03	    7.900000E+02	
    2.717348E-02	    2.121273E-03	    3.635775E-03	   -1.000000E+00	    1.000000E-03	    1.640000E-03	    7.900000E+02	
    2.702047E-02	    1.436366E-03	    2.452289E-03	   -1.000000E+00	    1.000000E-03	    1.640000E-03	    7.900000E+02	
    2.690149E-02	    9.530553E-04	    1.612006E-03	   -1.000000E+00	    1.000000E-03	    1.640000E-03	    7.900000E+02	
    2.681443E-02	    6.211835E-04	    1.026103E-03	   -1.000000E+00	    1.000000E-03	    1.640000E-03	    7.900000E+02	
    2.675368E-02	    3.989530E-04	    6.190061E-04	   -1.000000E+00	    1.000000E-03	    1.640000E-03	    7.900000E+02	
    2.671282E-02	    2.534251E-04	    3.283884E-04	   -1.000000E+00	    1.000000E-03	    1.640000E-03	    7.900000E+02	
    2.668611E-02	    1.599037E-04	    1.028000E-04	   -1.000000E+00	    1.000000E-03	    1.640000E-03	    7.900000E+02	
    2.667659E-02	    1.268800E-04	    0.000000E+00	    0.000000E+00	    1.000000E-03	    1.000000E-03	    1.000000E+03	
   -2.667344E-02	    1.277487E-04	    0.000000E+00	    0.000000E+00	    1.000000E-03	    1.000000E-03	    1.000000E+03	
   -2.668213E-02	    1.609935E-04	    1.966718E-04	   -1.000000E+00	    1.000000E-03	    1.640000E-03	    7.900000E+02	
   -2.670651E-02	    2.551301E-04	    6.283020E-04	   -1.000000E+00	    1.000000E-03	    1.640000E-03	    7.900000E+02	
   -2.674374E-02	    4.015826E-04	    1.184218E-03	   -1.000000E+00	    1.000000E-03	    1.640000E-03	    7.900000E+02	
   -2.679892E-02	    6.251485E-04	    1.962652E-03	   -1.000000E+00	    1.000000E-03	    1.640000E-03	    7.900000E+02	
   -2.687762E-02	    9.588423E-04	    3.082379E-03	   -1.000000E+00	    1.000000E-03	    1.640000E-03	    7.900000E+02	
   -2.698436E-02	    1.444438E-03	    4.686992E-03	   -1.000000E+00	    1.000000E-03	    1.640000E-03	    7.900000E+02	
   -2.711988E-02	    2.131835E-03	    6.944467E-03	   -1.000000E+00	    1.000000E-03	    1.640000E-03	    7.900000E+02	
   -2.727680E-02	    3.076708E-03	    1.004044E-02	   -1.000000E+00	    1.000000E-03	    1.640000E-03	    7.900000E+02	
   -2.743400E-02	    4.335846E-03	    1.416347E-02	   -1.000000E+00	    1.000000E-03	    1.640000E-03	    7.900000E+02	
   -2.755057E-02	    5.959610E-03	    1.948057E-02	   -1.000000E+00	    1.000000E-03	    1.640000E-03	    7.900000E+02	
   -2.756164E-02	    7.981184E-03	    2.610215E-02	   -1.000000E+00	    1.000000E-03	    1.640000E-03	    7.900000E+02	
   -2.737906E-02	    1.040324E-02	    3.403847E-02	   -1.000000E+00	    1.000000E-03	    1.640000E-03	    7.900000E+02	
   -2.690021E-02	    1.318458E-02	    4.315574E-02	   -1.000000E+00	    1.000000E-03	    1.640000E-03	    7.900000E+02	
   -2.602658E-02	    1.623185E-02	    5.314865E-02	   -1.000000E+00	    1.000000E-03	    1.640000E-03	    7.900000E+02	
   -2.468906E-02	    1.940282E-02	    6.355048E-02	   -1.000000E+00	    1.000000E-03	    1.640000E-03	    7.900000E+02	
   -2.287167E-02	    2.252495E-02	    7.379395E-02	   -1.000000E+00	    1.000000E-03	    1.640000E-03	    7.900000E+02	
   -2.062291E-02	    2.542655E-02	    8.331361E-02	   -1.000000E+00	    1.000000E-03	    1.640000E-03	    7.900000E+02	
   -1.804817E-02	    2.796957E-02	    9.165464E-02	   -1.000000E+00	    1.000000E-03	    1.640000E-03	    7.900000E+02	
   -1.528598E-02	    3.007182E-02	    9.854642E-02	   -1.000000E+00	    1.000000E-03	    1.640000E-03	    7.900000E+02	
   -1.247843E-02	    3.171147E-02	    1.039176E-01	   -1.000000E+00	    1.000000E-03	    1.640000E-03	    7.900000E+02	
   -9.747155E-03	    3.291628E-02	    1.078602E-01	   -1.000000E+00	    1.000000E-03	    1.640000E-03	    7.900000E+02	
   -7.180746E-03	    3.374507E-02	    1.105683E-01	   -1.000000E+00	    1.000000E-03	    1.640000E-03	    7.900000E+02	
   -4.833003E-03	    3.426960E-02	    1.122781E-01	   -1.000000E+00	    1.000000E-03	    1.640000E-03	    7.900000E+02	
   -2.728183E-03	    3.456115E-02	    1.132238E-01	   -1.000000E+00	    1.000000E-03	    1.640000E-03	    7.900000E+02	
   -8.689195E-04	    3.468274E-02	    1.136122E-01	   -1.000000E+00	    1.000000E-03	    1.640000E-03	    7.900000E+02	
    8.689195E-04	    3.468274E-02	    1.136122E-01	   -1.000000E+00	    1.000000E-03	    1.640000E-03	    7.900000E+02	
    2.728183E-03	    3.456115E-02	    1.132238E-01	   -1.000000E+00	    1.000000E-03	    1.640000E-03	    7.900000E+02	
    4.833003E-03	    3.426960E-02	    1.122781E-01	   -1.000000E+00	    1.000000E-03	    1.640000E-03	    7.900000E+02	
    7.180746E-03	    3.374507E-02	    1.105683E-01	   -1.000000E+00	    1.000000E-03	    1.640000E-03	    7.900000E+02	
    9.747155E-03	    3.291628E-02	    1.078602E-01	   -1.000000E+00	    1.000000E-03	    1.640000E-03	    7.900000E+02	
    1.247843E-02	    3.171147E-02	    1.039176E-01	   -1.000000E+00	    1.000000E-03	    1.640000E-03	    7.900000E+02	
    1.528598E-02	    3.007182E-02	    9.854642E-02	   -1.000000E+00	    1.000000E-03	    1.640000E-03	    7.900000E+02	
    1.804817E-02	    2.796957E-02	    9.165464E-02	   -1.000000E+00	    1.000000E-03	    1.640000E-03	    7.900000E+02	
    2.062291E-02	    2.542655E-02	    8.331361E-02	   -1.000000E+00	    1.000000E-03	    1.640000E-03	    7.900000E+02	
    2.287167E-02	    2.252495E-02	    7.379395E-02	   -1.000000E+00	    1.000000E-03	    1.640000E-03	    7.900000E+02	
    2.468906E-02	    1.940282E-02	    6.355048E-02	   -1.000000E+00	    1.000000E-03	    1.640000E-03	    7.900000E+02	
    2.602658E-02	    1.623185E-02	    5.314865E-02	   -1.000000E+00	    1.000000E-03	    1.640000E-03	    7.900000E+02	
    2.690021E-02	    1.318458E-02	    4.315574E-02	   -1.000000E+00	    1.000000E-03	    1.640000E-03	    7.900000E+02	
    2.737906E-02	    1.040324E-02	    3.403847E-02	   -1.000000E+00	    1.000000E-03	    1.640000E-03	    7.900000E+02	
    2.756164E-02	    7.981184E-03	    2.610215E-02	   -1.000000E+00	    1.000000E-03	    1.640000E-03	    7.900000E+02	
    2.755057E-02	    5.959610E-03	    1.948057E-02	   -1.000000E+00	    1.000000E-03	    1.640000E-03	    7.900000E+02	
    2.743400E-02	    4.335846E-03	    1.416347E-02	   -1.000000E+00	    1.000000E-03	    1.640000E-03	    7.900000E+02	
    2.727680E-02	    3.076708E-03	    1.004044E-02	   -1.000000E+00	    1.000000E-03	    1.640000E-03	    7.900000E+02	
    2.711988E-02	    2.131835E-03	    6.944467E-03	   -1.000000E+00	    1.000000E-03	    1.640000E-03	    7.900000E+02	
    2.698436E-02	    1.444438E-03	    4.686992E-03	   -1.000000E+00	    1.000000E-03	    1.640000E-03	    7.900000E+02	
    2.687762E-02	    9.588423E-04	    3.082379E-03	   -1.000000E+00	    1.000000E-03	    1.640000E-03	    7.900000E+02	
    2.679892E-02	    6.251485E-04	    1.962652E-03	   -1.000000E+00	    1.000000E-03	    1.640000E-03	    7.900000E+02	
    2.674374E-02	    4.015826E-04	    1.184218E-03	   -1.000000E+00	    1.000000E-03	    1.640000E-03	    7.900000E+02	
    2.670651E-02	    2.551301E-04	    6.283020E-04	   -1.000000E+00	    1.000000E-03	    1.640000E-03	    7.900000E+02	
    2.668213E-02	    1.609935E-04	    1.966718E-04	   -1.000000E+00	    1.000000E-03	    1.640000E-03	    7.900000E+02	
    2.667344E-02	    1.277487E-04	    0.000000E+00	    0.000000E+00	    1.000000E-03	    1.000000E-03	    1.000000E+03	
   -2.666931E-02	    1.287605E-04	    0.000000E+00	    0.000000E+00	    1.000000E-03	    1.000000E-03	    1.000000E+03	
   -2.667693E-02	    1.622621E-04	    3.184063E-04	   -1.000000E+00	    1.000000E-03	    1.640000E-03	    7.900000E+02	
   -2.669826E-02	    2.571110E-04	    1.017285E-03	   -1.000000E+00	    1.000000E-03	    1.640000E-03	    7.900000E+02	
   -2.673073E-02	    4.046289E-04	    1.917119E-03	   -1.000000E+00	    1.000000E-03	    1.640000E-03	    7.900000E+02	
   -2.677864E-02	    6.297202E-04	    3.176528E-03	   -1.000000E+00	    1.000000E-03	    1.640000E-03	    7.900000E+02	
   -2.684643E-02	    9.654642E-04	    4.986843E-03	   -1.000000E+00	    1.000000E-03	    1.640000E-03	    7.900000E+02	
   -2.693721E-02	    1.453559E-03	    7.578485E-03	   -1.000000E+00	    1.000000E-03	    1.640000E-03	    7.900000E+02	
   -2.705000E-02	    2.143515E-03	    1.121939E-02	   -1.000000E+00	    1.000000E-03	    1.640000E-03	    7.900000E+02	
   -2.717548E-02	    3.090035E-03	    1.620280E-02	   -1.000000E+00	    1.000000E-03	    1.640000E-03	    7.900000E+02	
   -2.729060E-02	    4.348017E-03	    2.282182E-02	   -1.000000E+00	    1.000000E-03	    1.640000E-03	    7.900000E+02	
   -2.735302E-02	    5.964664E-03	    3.132825E-02	   -1.000000E+00	    1.000000E-03	    1.640000E-03	    7.900000E+02	
   -2.729763E-02	    7.968572E-03	    4.187539E-02	   -1.000000E+00	    1.000000E-03	    1.640000E-03	    7.900000E+02	
   -2.703819E-02	    1.035669E-02	    5.444954E-02	   -1.000000E+00	    1.000000E-03	    1.640000E-03	    7.900000E+02	
   -2.647717E-02	    1.308204E-02	    6.880502E-02	   -1.000000E+00	    1.000000E-03	    1.640000E-03	    7.900000E+02	
   -2.552451E-02	    1.604729E-02	    8.442993E-02	   -1.000000E+00	    1.000000E-03	    1.640000E-03	    7.900000E+02	
   -2.412189E-02	    1.911018E-02	    1.005738E-01	   -1.000000E+00	    1.000000E-03	    1.640000E-03	    7.900000E+02	
   -2.226395E-02	    2.210353E-02	    1.163528E-01	   -1.000000E+00	    1.000000E-03	    1.640000E-03	    7.900000E+02	
   -2.000646E-02	    2.486573E-02	    1.309118E-01	   -1.000000E+00	    1.000000E-03	    1.640000E-03	    7.900000E+02	
   -1.745650E-02	    2.727113E-02	    1.435855E-01	   -1.000000E+00	    1.000000E-03	    1.640000E-03	    7.900000E+02	
   -1.474852E-02	    2.924881E-02	    1.539991E-01	   -1.000000E+00	    1.000000E-03	    1.640000E-03	    7.900000E+02	
   -1.201664E-02	    3.078457E-02	    1.620786E-01	   -1.000000E+00	    1.000000E-03	    1.640000E-03	    7.900000E+02	
   -9.373269E-03	    3.190930E-02	    1.679889E-01	   -1.000000E+00	    1.000000E-03	    1.640000E-03	    7.900000E+02	
   -6.898641E-03	    3.268117E-02	    1.720383E-01	   -1.000000E+00	    1.000000E-03	    1.640000E-03	    7.900000E+02	
   -4.640298E-03	    3.316891E-02	    1.745905E-01	   -1.000000E+00	    1.000000E-03	    1.640000E-03	    7.900000E+02	
   -2.618515E-03	    3.343975E-02	    1.760005E-01	   -1.000000E+00	    1.000000E-03	    1.640000E-03	    7.900000E+02	
   -8.338726E-04	    3.355266E-02	    1.765789E-01	   -1.000000E+00	    1.000000E-03	    1.640000E-03	    7.900000E+02	
    8.338726E-04	    3.355266E-02	    1.765789E-01	   -1.000000E+00	    1.000000E-03	    1.640000E-03	    7.900000E+02	
    2.618515E-03	    3.343975E-02	    1.760005E-01	   -1.000000E+00	    1.000000E-03	    1.640000E-03	    7.900000E+02	
    4.640298E-03	    3.316891E-02	    1.745905E-01	   -1.000000E+00	    1.000000E-03	    1.640000E-03	    7.900000E+02	
    6.898641E-03	    3.268117E-02	    1.720383E-01	   -1.000000E+00	    1.000000E-03	    1.640000E-03	    7.900000E+02	
    9.373269E-03	    3.190930E-02	    1.679889E-01	   -1.000000E+00	    1.000000E-03	    1.640000E-03	    7.900000E+02	
    1.201664E-02	    3.078457E-02	    1.620786E-01	   -1.000000E+00	    1.000000E-03	    1.640000E-03	    7.900000E+02	
    1.474852E-02	    2.924881E-02	    1.539991E-01	   -1.000000E+00	    1.000000E-03	    1.640000E-03	    7.900000E+02	
    1.745650E-02	    2.727113E-02	    1.435855E-01	   -1.000000E+00	    1.000000E-03	    1.640000E-03	    7.900000E+02	
    2.000646E-02	    2.486573E-02	    1.309118E-01	   -1.000000E+00	    1.000000E-03	    1.640000E-03	    7.900000E+02	
    2.226395E-02	    2.210353E-02	    1.163528E-01	   -1.000000E+00	    1.000000E-03	    1.640000E-03	    7.900000E+02	
    2.412189E-02	    1.911018E-02	    1.005738E-01	   -1.000000E+00	    1.000000E-03	    1.640000E-03	    7.900000E+02	
    2.552451E-02	    1.604729E-02	    8.442993E-02	   -1.000000E+00	    1.000000E-03	    1.640000E-03	    7.900000E+02	
    2.647717E-02	    1.308204E-02	    6.880502E-02	   -1.000000E+00	    1.000000E-03	    1.640000E-03	    7.900000E+02	
    2.703819E-02	    1.035669E-02	    5.444954E-02	   -1.000000E+00	    1.000000E-03	    1.640000E-03	    7.900000E+02	
    2.729763E-02	    7.968572E-03	    4.187539E-02	   -1.000000E+00	    1.000000E-03	    1.640000E-03	    7.900000E+02	