Title="Fields"
Variables="X""Y""Velocity""Phi""Effective Viscosity""Dynamic Viscosity""Density"
Zone I=82 J=82 F=POINT
   -2.618509E-02	    1.211849E-04	    0.000000E+00	   -1.000000E+00	    1.640000E-03	    1.640000E-03	    7.900000E+02	
   -2.619223E-02	    1.400649E-04	    0.000000E+00	   -1.000000E+00	    1.640000E-03	    1.640000E-03	    7.900000E+02	
   -2.620992E-02	    1.870190E-04	    0.000000E+00	   -1.000000E+00	    1.640000E-03	    1.640000E-03	    7.900000E+02	
   -2.623326E-02	    2.493186E-04	    0.000000E+00	   -1.000000E+00	    1.640000E-03	    1.640000E-03	    7.900000E+02	
   -2.626377E-02	    3.314789E-04	    0.000000E+00	   -1.000000E+00	    1.640000E-03	    1.640000E-03	    7.900000E+02	
   -2.630328E-02	    4.390715E-04	    0.000000E+00	   -1.000000E+00	    1.640000E-03	    1.640000E-03	    7.900000E+02	
   -2.635387E-02	    5.788591E-04	    0.000000E+00	   -1.000000E+00	    1.640000E-03	    1.640000E-03	    7.900000E+02	
   -2.641780E-02	    7.589073E-04	    0.000000E+00	   -1.000000E+00	    1.640000E-03	    1.640000E-03	    7.900000E+02	
   -2.649738E-02	    9.886604E-04	    0.000000E+00	   -1.000000E+00	    1.640000E-03	    1.640000E-03	    7.900000E+02	
   -2.659476E-02	    1.278965E-03	    0.000000E+00	   -1.000000E+00	    1.640000E-03	    1.640000E-03	    7.900000E+02	
   -2.671160E-02	    1.642027E-03	    0.000000E+00	   -1.000000E+00	    1.640000E-03	    1.640000E-03	    7.900000E+02	
   -2.684867E-02	    2.091277E-03	    0.000000E+00	   -1.000000E+00	    1.640000E-03	    1.640000E-03	    7.900000E+02	
   -2.700533E-02	    2.641137E-03	    0.000000E+00	   -1.000000E+00	    1.640000E-03	    1.640000E-03	    7.900000E+02	
   -2.717886E-02	    3.306650E-03	    0.000000E+00	   -1.000000E+00	    1.640000E-03	    1.640000E-03	    7.900000E+02	
   -2.736378E-02	    4.102942E-03	    0.000000E+00	   -1.000000E+00	    1.640000E-03	    1.640000E-03	    7.900000E+02	
   -2.755115E-02	    5.044500E-03	    0.000000E+00	   -1.000000E+00	    1.640000E-03	    1.640000E-03	    7.900000E+02	
   -2.772795E-02	    6.144210E-03	    0.000000E+00	   -1.000000E+00	    1.640000E-03	    1.640000E-03	    7.900000E+02	
   -2.787661E-02	    7.412152E-03	    0.000000E+00	   -1.000000E+00	    1.640000E-03	    1.640000E-03	    7.900000E+02	
   -2.797497E-02	    8.854177E-03	    0.000000E+00	   -1.000000E+00	    1.640000E-03	    1.640000E-03	    7.900000E+02	
   -2.799666E-02	    1.047033E-02	    0.000000E+00	   -1.000000E+00	    1.640000E-03	    1.640000E-03	    7.900000E+02	
   -2.791222E-02	    1.225326E-02	    0.000000E+00	   -1.000000E+00	    1.640000E-03	    1.640000E-03	    7.900000E+02	
   -2.769089E-02	    1.418696E-02	    0.000000E+00	   -1.000000E+00	    1.640000E-03	    1.640000E-03	    7.900000E+02	
   -2.730311E-02	    1.624597E-02	    0.000000E+00	   -1.000000E+00	    1.640000E-03	    1.640000E-03	    7.900000E+02	
   -2.672357E-02	    1.839559E-02	    0.000000E+00	   -1.000000E+00	    1.640000E-03	    1.640000E-03	    7.900000E+02	
   -2.593427E-02	    2.059315E-02	    0.000000E+00	   -1.000000E+00	    1.640000E-03	    1.640000E-03	    7.900000E+02	
   -2.492727E-02	    2.279060E-02	    0.000000E+00	   -1.000000E+00	    1.640000E-03	    1.640000E-03	    7.900000E+02	
   -2.370630E-02	    2.493795E-02	    0.000000E+00	   -1.000000E+00	    1.640000E-03	    1.640000E-03	    7.900000E+02	
   -2.228718E-02	    2.698728E-02	    0.000000E+00	   -1.000000E+00	    1.640000E-03	    1.640000E-03	    7.900000E+02	
   -2.069655E-02	    2.889666E-02	    0.000000E+00	   -1.000000E+00	    1.640000E-03	    1.640000E-03	    7.900000E+02	
   -1.896937E-02	    3.063312E-02	    0.000000E+00	   -1.000000E+00	    1.640000E-03	    1.640000E-03	    7.900000E+02	
   -1.714552E-02	    3.217455E-02	    0.000000E+00	   -1.000000E+00	    1.640000E-03	    1.640000E-03	    7.900000E+02	
   -1.526630E-02	    3.351001E-02	    0.000000E+00	   -1.000000E+00	    1.640000E-03	    1.640000E-03	    7.900000E+02	
   -1.337114E-02	    3.463897E-02	    0.000000E+00	   -1.000000E+00	    1.640000E-03	    1.640000E-03	    7.900000E+02	
   -1.149520E-02	    3.556946E-02	    0.000000E+00	   -1.000000E+00	    1.640000E-03	    1.640000E-03	    7.900000E+02	
   -9.667821E-03	    3.631590E-02	    0.000000E+00	   -1.000000E+00	    1.640000E-03	    1.640000E-03	    7.900000E+02	
   -7.911909E-03	    3.689682E-02	    0.000000E+00	   -1.000000E+00	    1.640000E-03	    1.640000E-03	    7.900000E+02	
   -6.244010E-03	    3.733281E-02	    0.000000E+00	   -1.000000E+00	    1.640000E-03	    1.640000E-03	    7.900000E+02	
   -4.674900E-03	    3.764488E-02	    0.000000E+00	   -1.000000E+00	    1.640000E-03	    1.640000E-03	    7.900000E+02	
   -3.210445E-03	    3.785324E-02	    0.000000E+00	   -1.000000E+00	    1.640000E-03	    1.640000E-03	    7.900000E+02	
   -1.852558E-03	    3.797655E-02	    0.000000E+00	   -1.000000E+00	    1.640000E-03	    1.640000E-03	    7.900000E+02	
   -6.001306E-04	    3.803147E-02	    0.000000E+00	   -1.000000E+00	    1.640000E-03	    1.640000E-03	    7.900000E+02	
    6.001306E-04	    3.803147E-02	    0.000000E+00	   -1.000000E+00	    1.640000E-03	    1.640000E-03	    7.900000E+02	
    1.852558E-03	    3.797655E-02	    0.000000E+00	   -1.000000E+00	    1.640000E-03	    1.640000E-03	    7.900000E+02	
    3.210445E-03	    3.785324E-02	    0.000000E+00	   -1.000000E+00	    1.640000E-03	    1.640000E-03	    7.900000E+02	
    4.674900E-03	    3.764488E-02	    0.000000E+00	   -1.000000E+00	    1.640000E-03	    1.640000E-03	    7.900000E+02	
    6.244010E-03	    3.733281E-02	    0.000000E+00	   -1.000000E+00	    1.640000E-03	    1.640000E-03	    7.900000E+02	
    7.911909E-03	    3.689682E-02	    0.000000E+00	   -1.000000E+00	    1.640000E-03	    1.640000E-03	    7.900000E+02	
    9.667821E-03	    3.631590E-02	    0.000000E+00	   -1.000000E+00	    1.640000E-03	    1.640000E-03	    7.900000E+02	
    1.149520E-02	    3.556946E-02	    0.000000E+00	   -1.000000E+00	    1.640000E-03	    1.640000E-03	    7.900000E+02	
    1.337114E-02	    3.463897E-02	    0.000000E+00	   -1.000000E+00	    1.640000E-03	    1.640000E-03	    7.900000E+02	
    1.526630E-02	    3.351001E-02	    0.000000E+00	   -1.000000E+00	    1.640000E-03	    1.640000E-03	    7.900000E+02	
    1.714552E-02	    3.217455E-02	    0.000000E+00	   -1.000000E+00	    1.640000E-03	    1.640000E-03	    7.900000E+02	
    1.896937E-02	    3.063312E-02	    0.000000E+00	   -1.000000E+00	    1.640000E-03	    1.640000E-03	    7.900000E+02	
    2.069655E-02	    2.889666E-02	    0.000000E+00	   -1.000000E+00	    1.640000E-03	    1.640000E-03	    7.900000E+02	
    2.228718E-02	    2.698728E-02	    0.000000E+00	   -1.000000E+00	    1.640000E-03	    1.640000E-03	    7.900000E+02	
    2.370630E-02	    2.493795E-02	    0.000000E+00	   -1.000000E+00	    1.640000E-03	    1.640000E-03	    7.900000E+02	
    2.492727E-02	    2.279060E-02	    0.000000E+00	   -1.000000E+00	    1.640000E-03	    1.640000E-03	    7.900000E+02	
    2.593427E-02	    2.059315E-02	    0.000000E+00	   -1.000000E+00	    1.640000E-03	    1.640000E-03	    7.900000E+02	
    2.672357E-02	    1.839559E-02	    0.000000E+00	   -1.000000E+00	    1.640000E-03	    1.640000E-03	    7.900000E+02	
    2.730311E-02	    1.624597E-02	    0.000000E+00	   -1.000000E+00	    1.640000E-03	    1.640000E-03	    7.900000E+02	
    2.769089E-02	    1.418696E-02	    0.000000E+00	   -1.000000E+00	    1.640000E-03	    1.640000E-03	    7.900000E+02	
    2.791222E-02	    1.225326E-02	    0.000000E+00	   -1.000000E+00	    1.640000E-03	    1.640000E-03	    7.900000E+02	
    2.799666E-02	    1.047033E-02	    0.000000E+00	   -1.000000E+00	    1.640000E-03	    1.640000E-03	    7.900000E+02	
    2.797497E-02	    8.854177E-03	    0.000000E+00	   -1.000000E+00	    1.640000E-03	    1.640000E-03	    7.900000E+02	
    2.787661E-02	    7.412152E-03	    0.000000E+00	   -1.000000E+00	    1.640000E-03	    1.640000E-03	    7.900000E+02	
    2.772795E-02	    6.144210E-03	    0.000000E+00	   -1.000000E+00	    1.640000E-03	    1.640000E-03	    7.900000E+02	
    2.755115E-02	    5.044500E-03	    0.000000E+00	   -1.000000E+00	    1.640000E-03	    1.640000E-03	    7.900000E+02	
    2.736378E-02	    4.102942E-03	    0.000000E+00	   -1.000000E+00	    1.640000E-03	    1.640000E-03	    7.900000E+02	
    2.717886E-02	    3.306650E-03	    0.000000E+00	   -1.000000E+00	    1.640000E-03	    1.640000E-03	    7.900000E+02	
    2.700533E-02	    2.641137E-03	    0.000000E+00	   -1.000000E+00	    1.640000E-03	    1.640000E-03	    7.900000E+02	
    2.684867E-02	    2.091277E-03	    0.000000E+00	   -1.000000E+00	    1.640000E-03	    1.640000E-03	    7.900000E+02	
    2.671160E-02	    1.642027E-03	    0.000000E+00	   -1.000000E+00	    1.640000E-03	    1.640000E-03	    7.900000E+02	
    2.659476E-02	    1.278965E-03	    0.000000E+00	   -1.000000E+00	    1.640000E-03	    1.640000E-03	    7.900000E+02	
    2.649738E-02	    9.886604E-04	    0.000000E+00	   -1.000000E+00	    1.640000E-03	    1.640000E-03	    7.900000E+02	
    2.641780E-02	    7.589073E-04	    0.000000E+00	   -1.000000E+00	    1.640000E-03	    1.640000E-03	    7.900000E+02	
    2.635387E-02	    5.788591E-04	    0.000000E+00	   -1.000000E+00	    1.640000E-03	    1.640000E-03	    7.900000E+02	
    2.630328E-02	    4.390715E-04	    0.000000E+00	   -1.000000E+00	    1.640000E-03	    1.640000E-03	    7.900000E+02	
    2.626377E-02	    3.314789E-04	    0.000000E+00	   -1.000000E+00	    1.640000E-03	    1.640000E-03	    7.900000E+02	
    2.623326E-02	    2.493186E-04	    0.000000E+00	   -1.000000E+00	    1.640000E-03	    1.640000E-03	    7.900000E+02	
    2.620992E-02	    1.870190E-04	    0.000000E+00	   -1.000000E+00	    1.640000E-03	    1.640000E-03	    7.900000E+02	
    2.619223E-02	    1.400649E-04	    0.000000E+00	   -1.000000E+00	    1.640000E-03	    1.640000E-03	    7.900000E+02	
    2.618509E-02	    1.211849E-04	    0.000000E+00	   -1.000000E+00	    1.640000E-03	    1.640000E-03	    7.900000E+02	
   -2.618448E-02	    1.214120E-04	    0.000000E+00	   -1.000000E+00	    1.640000E-03	    1.640000E-03	    7.900000E+02	
   -2.619153E-02	    1.403268E-04	    1.313275E-05	   -1.000000E+00	    1.640000E-03	    1.640000E-03	    7.900000E+02	
   -2.620899E-02	    1.873670E-04	    4.022737E-05	   -1.000000E+00	    1.640000E-03	    1.640000E-03	    7.900000E+02	
   -2.623201E-02	    2.497797E-04	    7.012572E-05	   -1.000000E+00	    1.640000E-03	    1.640000E-03	    7.900000E+02	
   -2.626211E-02	    3.320867E-04	    1.048342E-04	   -1.000000E+00	    1.640000E-03	    1.640000E-03	    7.900000E+02	
   -2.630108E-02	    4.398676E-04	    1.465102E-04	   -1.000000E+00	    1.640000E-03	    1.640000E-03	    7.900000E+02	
   -2.635097E-02	    5.798932E-04	    1.975209E-04	   -1.000000E+00	    1.640000E-03	    1.640000E-03	    7.900000E+02	
   -2.641399E-02	    7.602370E-04	    2.604826E-04	   -1.000000E+00	    1.640000E-03	    1.640000E-03	    7.900000E+02	
   -2.649240E-02	    9.903494E-04	    3.382838E-04	   -1.000000E+00	    1.640000E-03	    1.640000E-03	    7.900000E+02	
   -2.658828E-02	    1.281079E-03	    4.340904E-04	   -1.000000E+00	    1.640000E-03	    1.640000E-03	    7.900000E+02	
   -2.670325E-02	    1.644627E-03	    5.513315E-04	   -1.000000E+00	    1.640000E-03	    1.640000E-03	    7.900000E+02	
   -2.683799E-02	    2.094410E-03	    6.936640E-04	   -1.000000E+00	    1.640000E-03	    1.640000E-03	    7.900000E+02	
   -2.699176E-02	    2.644817E-03	    8.649132E-04	   -1.000000E+00	    1.640000E-03	    1.640000E-03	    7.900000E+02	
   -2.716176E-02	    3.310838E-03	    1.068985E-03	   -1.000000E+00	    1.640000E-03	    1.640000E-03	    7.900000E+02	
   -2.734242E-02	    4.107516E-03	    1.309738E-03	   -1.000000E+00	    1.640000E-03	    1.640000E-03	    7.900000E+02	
   -2.752472E-02	    5.049220E-03	    1.590809E-03	   -1.000000E+00	    1.640000E-03	    1.640000E-03	    7.900000E+02	
   -2.769555E-02	    6.148672E-03	    1.915379E-03	   -1.000000E+00	    1.640000E-03	    1.640000E-03	    7.900000E+02	
   -2.783733E-02	    7.415747E-03	    2.285865E-03	   -1.000000E+00	    1.640000E-03	    1.640000E-03	    7.900000E+02	
   -2.792789E-02	    8.856044E-03	    2.703554E-03	   -1.000000E+00	    1.640000E-03	    1.640000E-03	    7.900000E+02	
   -2.794096E-02	    1.046932E-02	    3.168180E-03	   -1.000000E+00	    1.640000E-03	    1.640000E-03	    7.900000E+02	
   -2.784726E-02	    1.224793E-02	    3.677507E-03	   -1.000000E+00	    1.640000E-03	    1.640000E-03	    7.900000E+02	
   -2.761630E-02	    1.417558E-02	    4.226964E-03	   -1.000000E+00	    1.640000E-03	    1.640000E-03	    7.900000E+02	
   -2.721892E-02	    1.622660E-02	    4.809442E-03	   -1.000000E+00	    1.640000E-03	    1.640000E-03	    7.900000E+02	
   -2.663030E-02	    1.836616E-02	    5.415331E-03	   -1.000000E+00	    1.640000E-03	    1.640000E-03	    7.900000E+02	
   -2.583299E-02	    2.055164E-02	    6.032875E-03	   -1.000000E+00	    1.640000E-03	    1.640000E-03	    7.900000E+02	
   -2.481957E-02	    2.273519E-02	    6.648863E-03	   -1.000000E+00	    1.640000E-03	    1.640000E-03	    7.900000E+02	
   -2.359428E-02	    2.486719E-02	    7.249580E-03	   -1.000000E+00	    1.640000E-03	    1.640000E-03	    7.900000E+02	
   -2.217326E-02	    2.690026E-02	    7.821916E-03	   -1.000000E+00	    1.640000E-03	    1.640000E-03	    7.900000E+02	
   -2.058332E-02	    2.879307E-02	    8.354416E-03	   -1.000000E+00	    1.640000E-03	    1.640000E-03	    7.900000E+02	
   -1.885938E-02	    3.051327E-02	    8.838124E-03	   -1.000000E+00	    1.640000E-03	    1.640000E-03	    7.900000E+02	
   -1.704114E-02	    3.203932E-02	    9.267072E-03	   -1.000000E+00	    1.640000E-03	    1.640000E-03	    7.900000E+02	
   -1.516952E-02	    3.336074E-02	    9.638388E-03	   -1.000000E+00	    1.640000E-03	    1.640000E-03	    7.900000E+02	
   -1.328354E-02	    3.447731E-02	    9.952049E-03	   -1.000000E+00	    1.640000E-03	    1.640000E-03	    7.900000E+02	
   -1.141788E-02	    3.539722E-02	    1.021039E-02	   -1.000000E+00	    1.640000E-03	    1.640000E-03	    7.900000E+02	
   -9.601437E-03	    3.613495E-02	    1.041751E-02	   -1.000000E+00	    1.640000E-03	    1.640000E-03	    7.900000E+02	
   -7.856719E-03	    3.670895E-02	    1.057859E-02	   -1.000000E+00	    1.640000E-03	    1.640000E-03	    7.900000E+02	
   -6.199943E-03	    3.713966E-02	    1.069940E-02	   -1.000000E+00	    1.640000E-03	    1.640000E-03	    7.900000E+02	
   -4.641633E-03	    3.744790E-02	    1.078579E-02	   -1.000000E+00	    1.640000E-03	    1.640000E-03	    7.900000E+02	
   -3.187474E-03	    3.765368E-02	    1.084338E-02	   -1.000000E+00	    1.640000E-03	    1.640000E-03	    7.900000E+02	
   -1.839260E-03	    3.777546E-02	    1.087737E-02	   -1.000000E+00	    1.640000E-03	    1.640000E-03	    7.900000E+02	
   -5.958165E-04	    3.782970E-02	    1.089236E-02	   -1.000000E+00	    1.640000E-03	    1.640000E-03	    7.900000E+02	
    5.958165E-04	    3.782970E-02	    1.089236E-02	   -1.000000E+00	    1.640000E-03	    1.640000E-03	    7.900000E+02	
    1.839260E-03	    3.777546E-02	    1.087737E-02	   -1.000000E+00	    1.640000E-03	    1.640000E-03	    7.900000E+02	
    3.187474E-03	    3.765368E-02	    1.084338E-02	   -1.000000E+00	    1.640000E-03	    1.640000E-03	    7.900000E+02	
    4.641633E-03	    3.744790E-02	    1.078579E-02	   -1.000000E+00	    1.640000E-03	    1.640000E-03	    7.900000E+02	
    6.199943E-03	    3.713966E-02	    1.069940E-02	   -1.000000E+00	    1.640000E-03	    1.640000E-03	    7.900000E+02	
    7.856719E-03	    3.670895E-02	    1.057859E-02	   -1.000000E+00	    1.640000E-03	    1.640000E-03	    7.900000E+02	
    9.601437E-03	    3.613495E-02	    1.041751E-02	   -1.000000E+00	    1.640000E-03	    1.640000E-03	    7.900000E+02	
    1.141788E-02	    3.539722E-02	    1.021039E-02	   -1.000000E+00	    1.640000E-03	    1.640000E-03	    7.900000E+02	
    1.328354E-02	    3.447731E-02	    9.952049E-03	   -1.000000E+00	    1.640000E-03	    1.640000E-03	    7.900000E+02	
    1.516952E-02	    3.336074E-02	    9.638388E-03	   -1.000000E+00	    1.640000E-03	    1.640000E-03	    7.900000E+02	
    1.704114E-02	    3.203932E-02	    9.267072E-03	   -1.000000E+00	    1.640000E-03	    1.640000E-03	    7.900000E+02	
    1.885938E-02	    3.051327E-02	    8.838124E-03	   -1.000000E+00	    1.640000E-03	    1.640000E-03	    7.900000E+02	
    2.058332E-02	    2.879307E-02	    8.354416E-03	   -1.000000E+00	    1.640000E-03	    1.640000E-03	    7.900000E+02	
    2.217326E-02	    2.690026E-02	    7.821916E-03	   -1.000000E+00	    1.640000E-03	    1.640000E-03	    7.900000E+02	
    2.359428E-02	    2.486719E-02	    7.249581E-03	   -1.000000E+00	    1.640000E-03	    1.640000E-03	    7.900000E+02	
    2.481957E-02	    2.273519E-02	    6.648863E-03	   -1.000000E+00	    1.640000E-03	    1.640000E-03	    7.900000E+02	
    2.583299E-02	    2.055164E-02	    6.032876E-03	   -1.000000E+00	    1.640000E-03	    1.640000E-03	    7.900000E+02	
    2.663030E-02	    1.836616E-02	    5.415331E-03	   -1.000000E+00	    1.640000E-03	    1.640000E-03	    7.900000E+02	
    2.721892E-02	    1.622660E-02	    4.809442E-03	   -1.000000E+00	    1.640000E-03	    1.640000E-03	    7.900000E+02	
    2.761630E-02	    1.417558E-02	    4.226964E-03	   -1.000000E+00	    1.640000E-03	    1.640000E-03	    7.900000E+02	
    2.784726E-02	    1.224793E-02	    3.677508E-03	   -1.000000E+00	    1.640000E-03	    1.640000E-03	    7.900000E+02	
    2.794096E-02	    1.046932E-02	    3.168181E-03	   -1.000000E+00	    1.640000E-03	    1.640000E-03	    7.900000E+02	
    2.792789E-02	    8.856044E-03	    2.703554E-03	   -1.000000E+00	    1.640000E-03	    1.640000E-03	    7.900000E+02	
    2.783733E-02	    7.415747E-03	    2.285866E-03	   -1.000000E+00	    1.640000E-03	    1.640000E-03	    7.900000E+02	
    2.769555E-02	    6.148672E-03	    1.915380E-03	   -1.000000E+00	    1.640000E-03	    1.640000E-03	    7.900000E+02	
    2.752472E-02	    5.049220E-03	    1.590810E-03	   -1.000000E+00	    1.640000E-03	    1.640000E-03	    7.900000E+02	
    2.734242E-02	    4.107516E-03	    1.309739E-03	   -1.000000E+00	    1.640000E-03	    1.640000E-03	    7.900000E+02	
    2.716176E-02	    3.310838E-03	    1.068986E-03	   -1.000000E+00	    1.640000E-03	    1.640000E-03	    7.900000E+02	
    2.699176E-02	    2.644817E-03	    8.649150E-04	   -1.000000E+00	    1.640000E-03	    1.640000E-03	    7.900000E+02	
    2.683799E-02	    2.094410E-03	    6.936662E-04	   -1.000000E+00	    1.640000E-03	    1.640000E-03	    7.900000E+02	
    2.670325E-02	    1.644627E-03	    5.513342E-04	   -1.000000E+00	    1.640000E-03	    1.640000E-03	    7.900000E+02	
    2.658828E-02	    1.281079E-03	    4.340937E-04	   -1.000000E+00	    1.640000E-03	    1.640000E-03	    7.900000E+02	
    2.649240E-02	    9.903494E-04	    3.382878E-04	   -1.000000E+00	    1.640000E-03	    1.640000E-03	    7.900000E+02	
    2.641399E-02	    7.602370E-04	    2.604873E-04	   -1.000000E+00	    1.640000E-03	    1.640000E-03	    7.900000E+02	
    2.635097E-02	    5.798932E-04	    1.975265E-04	   -1.000000E+00	    1.640000E-03	    1.640000E-03	    7.900000E+02	
    2.630108E-02	    4.398676E-04	    1.465164E-04	   -1.000000E+00	    1.640000E-03	    1.640000E-03	    7.900000E+02	
    2.626211E-02	    3.320867E-04	    1.048406E-04	   -1.000000E+00	    1.640000E-03	    1.640000E-03	    7.900000E+02	
    2.623201E-02	    2.497797E-04	    7.013162E-05	   -1.000000E+00	    1.640000E-03	    1.640000E-03	    7.900000E+02	
    2.620899E-02	    1.873670E-04	    4.023166E-05	   -1.000000E+00	    1.640000E-03	    1.640000E-03	    7.900000E+02	
    2.619153E-02	    1.403268E-04	    1.313435E-05	   -1.000000E+00	    1.640000E-03	    1.640000E-03	    7.900000E+02	
    2.618448E-02	    1.214120E-04	    0.000000E+00	   -1.000000E+00	    1.640000E-03	    1.640000E-03	    7.900000E+02	
   -2.618316E-02	    1.218983E-04	    0.000000E+00	   -1.000000E+00	    1.640000E-03	    1.640000E-03	    7.900000E+02	
   -2.619000E-02	    1.408877E-04	    4.185557E-05	   -1.000000E+00	    1.640000E-03	    1.640000E-03	    7.900000E+02	
   -2.620694E-02	    1.881123E-04	    1.282204E-04	   -1.000000E+00	    1.640000E-03	    1.640000E-03	    7.900000E+02	
   -2.622928E-02	    2.507667E-04	    2.235175E-04	   -1.000000E+00	    1.640000E-03	    1.640000E-03	    7.900000E+02	
   -2.625847E-02	    3.333875E-04	    3.341387E-04	   -1.000000E+00	    1.640000E-03	    1.640000E-03	    7.900000E+02	
   -2.629626E-02	    4.415707E-04	    4.669551E-04	   -1.000000E+00	    1.640000E-03	    1.640000E-03	    7.900000E+02	
   -2.634460E-02	    5.821045E-04	    6.295011E-04	   -1.000000E+00	    1.640000E-03	    1.640000E-03	    7.900000E+02	
   -2.640562E-02	    7.630786E-04	    8.300987E-04	   -1.000000E+00	    1.640000E-03	    1.640000E-03	    7.900000E+02	
   -2.648146E-02	    9.939558E-04	    1.077928E-03	   -1.000000E+00	    1.640000E-03	    1.640000E-03	    7.900000E+02	
   -2.657409E-02	    1.285589E-03	    1.383036E-03	   -1.000000E+00	    1.640000E-03	    1.640000E-03	    7.900000E+02	
   -2.668495E-02	    1.650166E-03	    1.756287E-03	   -1.000000E+00	    1.640000E-03	    1.640000E-03	    7.900000E+02	
   -2.681457E-02	    2.101070E-03	    2.209241E-03	   -1.000000E+00	    1.640000E-03	    1.640000E-03	    7.900000E+02	
   -2.696202E-02	    2.652619E-03	    2.753949E-03	   -1.000000E+00	    1.640000E-03	    1.640000E-03	    7.900000E+02	
   -2.712431E-02	    3.319683E-03	    3.402665E-03	   -1.000000E+00	    1.640000E-03	    1.640000E-03	    7.900000E+02	
   -2.729567E-02	    4.117125E-03	    4.167421E-03	   -1.000000E+00	    1.640000E-03	    1.640000E-03	    7.900000E+02	
   -2.746689E-02	    5.059048E-03	    5.059459E-03	   -1.000000E+00	    1.640000E-03	    1.640000E-03	    7.900000E+02	
   -2.762472E-02	    6.157823E-03	    6.088468E-03	   -1.000000E+00	    1.640000E-03	    1.640000E-03	    7.900000E+02	
   -2.775151E-02	    7.422872E-03	    7.261613E-03	   -1.000000E+00	    1.640000E-03	    1.640000E-03	    7.900000E+02	
   -2.782514E-02	    8.859248E-03	    8.582365E-03	   -1.000000E+00	    1.640000E-03	    1.640000E-03	    7.900000E+02	
   -2.781952E-02	    1.046609E-02	    1.004920E-02	   -1.000000E+00	    1.640000E-03	    1.640000E-03	    7.900000E+02	
   -2.770576E-02	    1.223512E-02	    1.165431E-02	   -1.000000E+00	    1.640000E-03	    1.640000E-03	    7.900000E+02	
   -2.745402E-02	    1.414944E-02	    1.338253E-02	   -1.000000E+00	    1.640000E-03	    1.640000E-03	    7.900000E+02	
   -2.703599E-02	    1.618292E-02	    1.521080E-02	   -1.000000E+00	    1.640000E-03	    1.640000E-03	    7.900000E+02	
   -2.642791E-02	    1.830050E-02	    1.710839E-02	   -1.000000E+00	    1.640000E-03	    1.640000E-03	    7.900000E+02	
   -2.561349E-02	    2.045966E-02	    1.903810E-02	   -1.000000E+00	    1.640000E-03	    1.640000E-03	    7.900000E+02	
   -2.458649E-02	    2.261302E-02	    2.095855E-02	   -1.000000E+00	    1.640000E-03	    1.640000E-03	    7.900000E+02	
   -2.335213E-02	    2.471180E-02	    2.282716E-02	   -1.000000E+00	    1.640000E-03	    1.640000E-03	    7.900000E+02	
   -2.192730E-02	    2.670976E-02	    2.460362E-02	   -1.000000E+00	    1.640000E-03	    1.640000E-03	    7.900000E+02	
   -2.033912E-02	    2.856687E-02	    2.625303E-02	   -1.000000E+00	    1.640000E-03	    1.640000E-03	    7.900000E+02	
   -1.862243E-02	    3.025212E-02	    2.774848E-02	   -1.000000E+00	    1.640000E-03	    1.640000E-03	    7.900000E+02	
   -1.681647E-02	    3.174515E-02	    2.907238E-02	   -1.000000E+00	    1.640000E-03	    1.640000E-03	    7.900000E+02	
   -1.496139E-02	    3.303648E-02	    3.021670E-02	   -1.000000E+00	    1.640000E-03	    1.640000E-03	    7.900000E+02	
   -1.309527E-02	    3.412652E-02	    3.118210E-02	   -1.000000E+00	    1.640000E-03	    1.640000E-03	    7.900000E+02	
   -1.125180E-02	    3.502383E-02	    3.197639E-02	   -1.000000E+00	    1.640000E-03	    1.640000E-03	    7.900000E+02	
   -9.458912E-03	    3.574294E-02	    3.261262E-02	   -1.000000E+00	    1.640000E-03	    1.640000E-03	    7.900000E+02	
   -7.738268E-03	    3.630215E-02	    3.310710E-02	   -1.000000E+00	    1.640000E-03	    1.640000E-03	    7.900000E+02	
   -6.105390E-03	    3.672160E-02	    3.347774E-02	   -1.000000E+00	    1.640000E-03	    1.640000E-03	    7.900000E+02	
   -4.570267E-03	    3.702168E-02	    3.374267E-02	   -1.000000E+00	    1.640000E-03	    1.640000E-03	    7.900000E+02	
   -3.138201E-03	    3.722198E-02	    3.391924E-02	   -1.000000E+00	    1.640000E-03	    1.640000E-03	    7.900000E+02	
   -1.810738E-03	    3.734050E-02	    3.402340E-02	   -1.000000E+00	    1.640000E-03	    1.640000E-03	    7.900000E+02	
   -5.865637E-04	    3.739328E-02	    3.406933E-02	   -1.000000E+00	    1.640000E-03	    1.640000E-03	    7.900000E+02	
    5.865637E-04	    3.739328E-02	    3.406933E-02	   -1.000000E+00	    1.640000E-03	    1.640000E-03	    7.900000E+02	
    1.810738E-03	    3.734050E-02	    3.402340E-02	   -1.000000E+00	    1.640000E-03	    1.640000E-03	    7.900000E+02	
    3.138201E-03	    3.722198E-02	    3.391925E-02	   -1.000000E+00	    1.640000E-03	    1.640000E-03	    7.900000E+02	
    4.570267E-03	    3.702168E-02	    3.374267E-02	   -1.000000E+00	    1.640000E-03	    1.640000E-03	    7.900000E+02	
    6.105390E-03	    3.672160E-02	    3.347774E-02	   -1.000000E+00	    1.640000E-03	    1.640000E-03	    7.900000E+02	
    7.738268E-03	    3.630215E-02	    3.310710E-02	   -1.000000E+00	    1.640000E-03	    1.640000E-03	    7.900000E+02	
    9.458912E-03	    3.574294E-02	    3.261262E-02	   -1.000000E+00	    1.640000E-03	    1.640000E-03	    7.900000E+02	
    1.125180E-02	    3.502383E-02	    3.197639E-02	   -1.000000E+00	    1.640000E-03	    1.640000E-03	    7.900000E+02	
    1.309527E-02	    3.412652E-02	    3.118210E-02	   -1.000000E+00	    1.640000E-03	    1.640000E-03	    7.900000E+02	
    1.496139E-02	    3.303648E-02	    3.021670E-02	   -1.000000E+00	    1.640000E-03	    1.640000E-03	    7.900000E+02	
    1.681647E-02	    3.174515E-02	    2.907238E-02	   -1.000000E+00	    1.640000E-03	    1.640000E-03	    7.900000E+02	
    1.862243E-02	    3.025212E-02	    2.774848E-02	   -1.000000E+00	    1.640000E-03	    1.640000E-03	    7.900000E+02	
    2.033912E-02	    2.856687E-02	    2.625303E-02	   -1.000000E+00	    1.640000E-03	    1.640000E-03	    7.900000E+02	
    2.192730E-02	    2.670976E-02	    2.460362E-02	   -1.000000E+00	    1.640000E-03	    1.640000E-03	    7.900000E+02	
    2.335213E-02	    2.471180E-02	    2.282716E-02	   -1.000000E+00	    1.640000E-03	    1.640000E-03	    7.900000E+02	
    2.458649E-02	    2.261302E-02	    2.095855E-02	   -1.000000E+00	    1.640000E-03	    1.640000E-03	    7.900000E+02	
    2.561349E-02	    2.045966E-02	    1.903810E-02	   -1.000000E+00	    1.640000E-03	    1.640000E-03	    7.900000E+02	
    2.642791E-02	    1.830050E-02	    1.710839E-02	   -1.000000E+00	    1.640000E-03	    1.640000E-03	    7.900000E+02	
    2.703599E-02	    1.618292E-02	    1.521080E-02	   -1.000000E+00	    1.640000E-03	    1.640000E-03	    7.900000E+02	
    2.745402E-02	    1.414944E-02	    1.338253E-02	   -1.000000E+00	    1.640000E-03	    1.640000E-03	    7.900000E+02	
    2.770576E-02	    1.223512E-02	    1.165431E-02	   -1.000000E+00	    1.640000E-03	    1.640000E-03	    7.900000E+02	
    2.781952E-02	    1.046609E-02	    1.004920E-02	   -1.000000E+00	    1.640000E-03	    1.640000E-03	    7.900000E+02	
    2.782514E-02	    8.859248E-03	    8.582367E-03	   -1.000000E+00	    1.640000E-03	    1.640000E-03	    7.900000E+02	
    2.775151E-02	    7.422872E-03	    7.261615E-03	   -1.000000E+00	    1.640000E-03	    1.640000E-03	    7.900000E+02	
    2.762472E-02	    6.157823E-03	    6.088471E-03	   -1.000000E+00	    1.640000E-03	    1.640000E-03	    7.900000E+02	
    2.746689E-02	    5.059048E-03	    5.059462E-03	   -1.000000E+00	    1.640000E-03	    1.640000E-03	    7.900000E+02	
    2.729567E-02	    4.117125E-03	    4.167425E-03	   -1.000000E+00	    1.640000E-03	    1.640000E-03	    7.900000E+02	
    2.712431E-02	    3.319683E-03	    3.402670E-03	   -1.000000E+00	    1.640000E-03	    1.640000E-03	    7.900000E+02	
    2.696202E-02	    2.652619E-03	    2.753955E-03	   -1.000000E+00	    1.640000E-03	    1.640000E-03	    7.900000E+02	
    2.681457E-02	    2.101070E-03	    2.209248E-03	   -1.000000E+00	    1.640000E-03	    1.640000E-03	    7.900000E+02	
    2.668495E-02	    1.650166E-03	    1.756296E-03	   -1.000000E+00	    1.640000E-03	    1.640000E-03	    7.900000E+02	
    2.657409E-02	    1.285589E-03	    1.383046E-03	   -1.000000E+00	    1.640000E-03	    1.640000E-03	    7.900000E+02	
    2.648146E-02	    9.939558E-04	    1.077940E-03	   -1.000000E+00	    1.640000E-03	    1.640000E-03	    7.900000E+02	
    2.640562E-02	    7.630786E-04	    8.301138E-04	   -1.000000E+00	    1.640000E-03	    1.640000E-03	    7.900000E+02	
    2.634460E-02	    5.821045E-04	    6.295187E-04	   -1.000000E+00	    1.640000E-03	    1.640000E-03	    7.900000E+02	
    2.629626E-02	    4.415707E-04	    4.669748E-04	   -1.000000E+00	    1.640000E-03	    1.640000E-03	    7.900000E+02	
    2.625847E-02	    3.333875E-04	    3.341592E-04	   -1.000000E+00	    1.640000E-03	    1.640000E-03	    7.900000E+02	
    2.622928E-02	    2.507667E-04	    2.235363E-04	   -1.000000E+00	    1.640000E-03	    1.640000E-03	    7.900000E+02	
    2.620694E-02	    1.881123E-04	    1.282341E-04	   -1.000000E+00	    1.640000E-03	    1.640000E-03	    7.900000E+02	
    2.619000E-02	    1.408877E-04	    4.186066E-05	   -1.000000E+00	    1.640000E-03	    1.640000E-03	    7.900000E+02	
    2.618316E-02	    1.218983E-04	    0.000000E+00	   -1.000000E+00	    1.640000E-03	    1.640000E-03	    7.900000E+02	
   -2.618158E-02	    1.224564E-04	    0.000000E+00	   -1.000000E+00	    1.640000E-03	    1.640000E-03	    7.900000E+02	
   -2.618817E-02	    1.415315E-04	    7.591773E-05	   -1.000000E+00	    1.640000E-03	    1.640000E-03	    7.900000E+02	
   -2.620450E-02	    1.889675E-04	    2.325852E-04	   -1.000000E+00	    1.640000E-03	    1.640000E-03	    7.900000E+02	