Title="Fields"
Variables="X""Y""Velocity""Phi""Effective Viscosity""Dynamic Viscosity""Density""Eddy Viscosity""K""Omega""S"
Zone I=52 J=52 F=POINT
   -2.621651E-02	    1.214778E-04	    0.000000E+00	    0.000000E+00	    1.000000E-03	    1.000000E-03	    1.000000E+03	    0.000000E+00	    0.000000E+00	    0.000000E+00	    0.000000E+00	
   -2.622836E-02	    1.531099E-04	    0.000000E+00	    0.000000E+00	    1.000000E-03	    1.000000E-03	    1.000000E+03	    0.000000E+00	    0.000000E+00	    0.000000E+00	    0.000000E+00	
   -2.626167E-02	    2.427231E-04	    0.000000E+00	    0.000000E+00	    1.000000E-03	    1.000000E-03	    1.000000E+03	    0.000000E+00	    0.000000E+00	    0.000000E+00	    0.000000E+00	
   -2.631285E-02	    3.822655E-04	    0.000000E+00	    0.000000E+00	    1.000000E-03	    1.000000E-03	    1.000000E+03	    0.000000E+00	    0.000000E+00	    0.000000E+00	    0.000000E+00	
   -2.638948E-02	    5.955814E-04	    0.000000E+00	    0.000000E+00	    1.000000E-03	    1.000000E-03	    1.000000E+03	    0.000000E+00	    0.000000E+00	    0.000000E+00	    0.000000E+00	
   -2.650048E-02	    9.146491E-04	    0.000000E+00	    0.000000E+00	    1.000000E-03	    1.000000E-03	    1.000000E+03	    0.000000E+00	    0.000000E+00	    0.000000E+00	    0.000000E+00	
   -2.665482E-02	    1.380406E-03	    0.000000E+00	    0.000000E+00	    1.000000E-03	    1.000000E-03	    1.000000E+03	    0.000000E+00	    0.000000E+00	    0.000000E+00	    0.000000E+00	
   -2.685885E-02	    2.042668E-03	    0.000000E+00	    0.000000E+00	    1.000000E-03	    1.000000E-03	    1.000000E+03	    0.000000E+00	    0.000000E+00	    0.000000E+00	    0.000000E+00	
   -2.711188E-02	    2.958673E-03	    0.000000E+00	    0.000000E+00	    1.000000E-03	    1.000000E-03	    1.000000E+03	    0.000000E+00	    0.000000E+00	    0.000000E+00	    0.000000E+00	
   -2.740006E-02	    4.189678E-03	    0.000000E+00	    0.000000E+00	    1.000000E-03	    1.000000E-03	    1.000000E+03	    0.000000E+00	    0.000000E+00	    0.000000E+00	    0.000000E+00	
   -2.768925E-02	    5.794860E-03	    0.000000E+00	    0.000000E+00	    1.000000E-03	    1.000000E-03	    1.000000E+03	    0.000000E+00	    0.000000E+00	    0.000000E+00	    0.000000E+00	
   -2.791863E-02	    7.821692E-03	    0.000000E+00	    0.000000E+00	    1.000000E-03	    1.000000E-03	    1.000000E+03	    0.000000E+00	    0.000000E+00	    0.000000E+00	    0.000000E+00	
   -2.799796E-02	    1.029250E-02	    0.000000E+00	    0.000000E+00	    1.000000E-03	    1.000000E-03	    1.000000E+03	    0.000000E+00	    0.000000E+00	    0.000000E+00	    0.000000E+00	
   -2.781264E-02	    1.318856E-02	    0.000000E+00	    0.000000E+00	    1.000000E-03	    1.000000E-03	    1.000000E+03	    0.000000E+00	    0.000000E+00	    0.000000E+00	    0.000000E+00	
   -2.723957E-02	    1.643599E-02	    0.000000E+00	    0.000000E+00	    1.000000E-03	    1.000000E-03	    1.000000E+03	    0.000000E+00	    0.000000E+00	    0.000000E+00	    0.000000E+00	
   -2.617393E-02	    1.990094E-02	    0.000000E+00	    0.000000E+00	    1.000000E-03	    1.000000E-03	    1.000000E+03	    0.000000E+00	    0.000000E+00	    0.000000E+00	    0.000000E+00	
   -2.456000E-02	    2.340124E-02	    0.000000E+00	    0.000000E+00	    1.000000E-03	    1.000000E-03	    1.000000E+03	    0.000000E+00	    0.000000E+00	    0.000000E+00	    0.000000E+00	
   -2.241393E-02	    2.673622E-02	    0.000000E+00	    0.000000E+00	    1.000000E-03	    1.000000E-03	    1.000000E+03	    0.000000E+00	    0.000000E+00	    0.000000E+00	    0.000000E+00	
   -1.982642E-02	    2.972634E-02	    0.000000E+00	    0.000000E+00	    1.000000E-03	    1.000000E-03	    1.000000E+03	    0.000000E+00	    0.000000E+00	    0.000000E+00	    0.000000E+00	
   -1.694261E-02	    3.224714E-02	    0.000000E+00	    0.000000E+00	    1.000000E-03	    1.000000E-03	    1.000000E+03	    0.000000E+00	    0.000000E+00	    0.000000E+00	    0.000000E+00	
   -1.392818E-02	    3.424485E-02	    0.000000E+00	    0.000000E+00	    1.000000E-03	    1.000000E-03	    1.000000E+03	    0.000000E+00	    0.000000E+00	    0.000000E+00	    0.000000E+00	
   -1.093617E-02	    3.573078E-02	    0.000000E+00	    0.000000E+00	    1.000000E-03	    1.000000E-03	    1.000000E+03	    0.000000E+00	    0.000000E+00	    0.000000E+00	    0.000000E+00	
   -8.085623E-03	    3.676195E-02	    0.000000E+00	    0.000000E+00	    1.000000E-03	    1.000000E-03	    1.000000E+03	    0.000000E+00	    0.000000E+00	    0.000000E+00	    0.000000E+00	
   -5.454425E-03	    3.741841E-02	    0.000000E+00	    0.000000E+00	    1.000000E-03	    1.000000E-03	    1.000000E+03	    0.000000E+00	    0.000000E+00	    0.000000E+00	    0.000000E+00	
   -3.082872E-03	    3.778458E-02	    0.000000E+00	    0.000000E+00	    1.000000E-03	    1.000000E-03	    1.000000E+03	    0.000000E+00	    0.000000E+00	    0.000000E+00	    0.000000E+00	
   -9.824066E-04	    3.793757E-02	    0.000000E+00	    0.000000E+00	    1.000000E-03	    1.000000E-03	    1.000000E+03	    0.000000E+00	    0.000000E+00	    0.000000E+00	    0.000000E+00	
    9.824066E-04	    3.793757E-02	    0.000000E+00	    0.000000E+00	    1.000000E-03	    1.000000E-03	    1.000000E+03	    0.000000E+00	    0.000000E+00	    0.000000E+00	    0.000000E+00	
    3.082872E-03	    3.778458E-02	    0.000000E+00	    0.000000E+00	    1.000000E-03	    1.000000E-03	    1.000000E+03	    0.000000E+00	    0.000000E+00	    0.000000E+00	    0.000000E+00	
    5.454425E-03	    3.741841E-02	    0.000000E+00	    0.000000E+00	    1.000000E-03	    1.000000E-03	    1.000000E+03	    0.000000E+00	    0.000000E+00	    0.000000E+00	    0.000000E+00	
    8.085623E-03	    3.676195E-02	    0.000000E+00	    0.000000E+00	    1.000000E-03	    1.000000E-03	    1.000000E+03	    0.000000E+00	    0.000000E+00	    0.000000E+00	    0.000000E+00	
    1.093617E-02	    3.573078E-02	    0.000000E+00	    0.000000E+00	    1.000000E-03	    1.000000E-03	    1.000000E+03	    0.000000E+00	    0.000000E+00	    0.000000E+00	    0.000000E+00	
    1.392818E-02	    3.424485E-02	    0.000000E+00	    0.000000E+00	    1.000000E-03	    1.000000E-03	    1.000000E+03	    0.000000E+00	    0.000000E+00	    0.000000E+00	    0.000000E+00	
    1.694261E-02	    3.224714E-02	    0.000000E+00	    0.000000E+00	    1.000000E-03	    1.000000E-03	    1.000000E+03	    0.000000E+00	    0.000000E+00	    0.000000E+00	    0.000000E+00	
    1.982642E-02	    2.972634E-02	    0.000000E+00	    0.000000E+00	    1.000000E-03	    1.000000E-03	    1.000000E+03	    0.000000E+00	    0.000000E+00	    0.000000E+00	    0.000000E+00	
    2.241393E-02	    2.673622E-02	    0.000000E+00	    0.000000E+00	    1.000000E-03	    1.000000E-03	    1.000000E+03	    0.000000E+00	    0.000000E+00	    0.000000E+00	    0.000000E+00	
    2.456000E-02	    2.340124E-02	    0.000000E+00	    0.000000E+00	    1.000000E-03	    1.000000E-03	    1.000000E+03	    0.000000E+00	    0.000000E+00	    0.000000E+00	    0.000000E+00	
    2.617393E-02	    1.990094E-02	    0.000000E+00	    0.000000E+00	    1.000000E-03	    1.000000E-03	    1.000000E+03	    0.000000E+00	    0.000000E+00	    0.000000E+00	    0.000000E+00	
    2.723957E-02	    1.643599E-02	    0.000000E+00	    0.000000E+00	    1.000000E-03	    1.000000E-03	    1.000000E+03	    0.000000E+00	    0.000000E+00	    0.000000E+00	    0.000000E+00	
    2.781264E-02	    1.318856E-02	    0.000000E+00	    0.000000E+00	    1.000000E-03	    1.000000E-03	    1.000000E+03	    0.000000E+00	    0.000000E+00	    0.000000E+00	    0.000000E+00	
    2.799796E-02	    1.029250E-02	    0.000000E+00	    0.000000E+00	    1.000000E-03	    1.000000E-03	    1.000000E+03	    0.000000E+00	    0.000000E+00	    0.000000E+00	    0.000000E+00	
    2.791863E-02	    7.821692E-03	    0.000000E+00	    0.000000E+00	    1.000000E-03	    1.000000E-03	    1.000000E+03	    0.000000E+00	    0.000000E+00	    0.000000E+00	    0.000000E+00	
    2.768925E-02	    5.794860E-03	    0.000000E+00	    0.000000E+00	    1.000000E-03	    1.000000E-03	    1.000000E+03	    0.000000E+00	    0.000000E+00	    0.000000E+00	    0.000000E+00	
    2.740006E-02	    4.189678E-03	    0.000000E+00	    0.000000E+00	    1.000000E-03	    1.000000E-03	    1.000000E+03	    0.000000E+00	    0.000000E+00	    0.000000E+00	    0.000000E+00	
    2.711188E-02	    2.958673E-03	    0.000000E+00	    0.000000E+00	    1.000000E-03	    1.000000E-03	    1.000000E+03	    0.000000E+00	    0.000000E+00	    0.000000E+00	    0.000000E+00	
    2.685885E-02	    2.042668E-03	    0.000000E+00	    0.000000E+00	    1.000000E-03	    1.000000E-03	    1.000000E+03	    0.000000E+00	    0.000000E+00	    0.000000E+00	    0.000000E+00	
    2.665482E-02	    1.380406E-03	    0.000000E+00	    0.000000E+00	    1.000000E-03	    1.000000E-03	    1.000000E+03	    0.000000E+00	    0.000000E+00	    0.000000E+00	    0.000000E+00	
    2.650048E-02	    9.146491E-04	    0.000000E+00	    0.000000E+00	    1.000000E-03	    1.000000E-03	    1.000000E+03	    0.000000E+00	    0.000000E+00	    0.000000E+00	    0.000000E+00	
    2.638948E-02	    5.955814E-04	    0.000000E+00	    0.000000E+00	    1.000000E-03	    1.000000E-03	    1.000000E+03	    0.000000E+00	    0.000000E+00	    0.000000E+00	    0.000000E+00	
    2.631285E-02	    3.822655E-04	    0.000000E+00	    0.000000E+00	    1.000000E-03	    1.000000E-03	    1.000000E+03	    0.000000E+00	    0.000000E+00	    0.000000E+00	    0.000000E+00	
    2.626167E-02	    2.427231E-04	    0.000000E+00	    0.000000E+00	    1.000000E-03	    1.000000E-03	    1.000000E+03	    0.000000E+00	    0.000000E+00	    0.000000E+00	    0.000000E+00	
    2.622836E-02	    1.531099E-04	    0.000000E+00	    0.000000E+00	    1.000000E-03	    1.000000E-03	    1.000000E+03	    0.000000E+00	    0.000000E+00	    0.000000E+00	    0.000000E+00	
    2.621651E-02	    1.214778E-04	    0.000000E+00	    0.000000E+00	    1.000000E-03	    1.000000E-03	    1.000000E+03	    0.000000E+00	    0.000000E+00	    0.000000E+00	    0.000000E+00	
   -2.621549E-02	    1.218559E-04	    0.000000E+00	    0.000000E+00	    1.000000E-03	    1.000000E-03	    1.000000E+03	    0.000000E+00	    0.000000E+00	    0.000000E+00	    0.000000E+00	
   -2.622707E-02	    1.535850E-04	    4.097844E-04	   -1.000000E+00	    1.641792E-03	    1.640000E-03	    7.900000E+02	    9.953084E-06	    1.670581E-03	    1.325980E+05	    5.727855E+04	
   -2.625963E-02	    2.434693E-04	    9.527120E-04	   -1.000000E+00	    1.641994E-03	    1.640000E-03	    7.900000E+02	    1.107695E-05	    8.233593E-04	    5.872138E+04	    1.240547E+05	
   -2.630963E-02	    3.834235E-04	    1.676577E-03	   -1.000000E+00	    1.643549E-03	    1.640000E-03	    7.900000E+02	    1.971933E-05	    1.052070E-03	    4.214827E+04	    1.547667E+05	
   -2.638444E-02	    5.973447E-04	    2.697273E-03	   -1.000000E+00	    1.646291E-03	    1.640000E-03	    7.900000E+02	    3.495239E-05	    1.361734E-03	    3.077814E+04	    1.647934E+05	
   -2.649271E-02	    9.172633E-04	    4.179332E-03	   -1.000000E+00	    1.650730E-03	    1.640000E-03	    7.900000E+02	    5.961241E-05	    1.679690E-03	    2.225972E+04	    1.673904E+05	
   -2.664303E-02	    1.384145E-03	    6.326614E-03	   -1.000000E+00	    1.657676E-03	    1.640000E-03	    7.900000E+02	    9.820269E-05	    2.001533E-03	    1.610150E+04	    1.678252E+05	
   -2.684127E-02	    2.047766E-03	    9.377318E-03	   -1.000000E+00	    1.668142E-03	    1.640000E-03	    7.900000E+02	    1.563437E-04	    2.317325E-03	    1.170938E+04	    1.674780E+05	
   -2.708618E-02	    2.965186E-03	    1.359153E-02	   -1.000000E+00	    1.683293E-03	    1.640000E-03	    7.900000E+02	    2.405146E-04	    2.614799E-03	    8.588633E+03	    1.663146E+05	
   -2.736329E-02	    4.197246E-03	    1.922799E-02	   -1.000000E+00	    1.704372E-03	    1.640000E-03	    7.900000E+02	    3.576249E-04	    2.884129E-03	    6.371095E+03	    1.638699E+05	
   -2.763789E-02	    5.802344E-03	    2.650878E-02	   -1.000000E+00	    1.732570E-03	    1.640000E-03	    7.900000E+02	    5.142803E-04	    3.119304E-03	    4.791648E+03	    1.596219E+05	
   -2.784877E-02	    7.826716E-03	    3.557277E-02	   -1.000000E+00	    1.768822E-03	    1.640000E-03	    7.900000E+02	    7.156761E-04	    3.317852E-03	    3.662416E+03	    1.532700E+05	
   -2.790585E-02	    1.029098E-02	    4.641827E-02	   -1.000000E+00	    1.813546E-03	    1.640000E-03	    7.900000E+02	    9.641433E-04	    3.480245E-03	    2.851644E+03	    1.450079E+05	
   -2.769550E-02	    1.317441E-02	    5.885167E-02	   -1.000000E+00	    1.866352E-03	    1.640000E-03	    7.900000E+02	    1.257509E-03	    3.609096E-03	    2.267328E+03	    1.355900E+05	
   -2.709675E-02	    1.640135E-02	    7.245692E-02	   -1.000000E+00	    1.925754E-03	    1.640000E-03	    7.900000E+02	    1.587520E-03	    3.707383E-03	    1.844911E+03	    1.260082E+05	
   -2.600795E-02	    1.983707E-02	    8.660083E-02	   -1.000000E+00	    1.989067E-03	    1.640000E-03	    7.900000E+02	    1.939260E-03	    3.777684E-03	    1.538922E+03	    1.170830E+05	
   -2.437706E-02	    2.330014E-02	    1.005085E-01	   -1.000000E+00	    2.052700E-03	    1.640000E-03	    7.900000E+02	    2.292778E-03	    3.823234E-03	    1.317334E+03	    1.093007E+05	
   -2.222339E-02	    2.659249E-02	    1.134071E-01	   -1.000000E+00	    2.112836E-03	    1.640000E-03	    7.900000E+02	    2.626864E-03	    3.848758E-03	    1.157471E+03	    1.028537E+05	
   -1.963920E-02	    2.953845E-02	    1.246813E-01	   -1.000000E+00	    2.166232E-03	    1.640000E-03	    7.900000E+02	    2.923511E-03	    3.859978E-03	    1.043055E+03	    9.773773E+04	
   -1.676920E-02	    3.201768E-02	    1.339739E-01	   -1.000000E+00	    2.210809E-03	    1.640000E-03	    7.900000E+02	    3.171160E-03	    3.862422E-03	    9.622072E+02	    9.383467E+04	
   -1.377688E-02	    3.397963E-02	    1.412008E-01	   -1.000000E+00	    2.245825E-03	    1.640000E-03	    7.900000E+02	    3.365695E-03	    3.860468E-03	    9.061337E+02	    9.097134E+04	
   -1.081227E-02	    3.543735E-02	    1.464971E-01	   -1.000000E+00	    2.271681E-03	    1.640000E-03	    7.900000E+02	    3.509340E-03	    3.857018E-03	    8.682671E+02	    8.895812E+04	
   -7.991410E-03	    3.644814E-02	    1.501314E-01	   -1.000000E+00	    2.289523E-03	    1.640000E-03	    7.900000E+02	    3.608460E-03	    3.853669E-03	    8.436835E+02	    8.761321E+04	
   -5.389749E-03	    3.709128E-02	    1.524255E-01	   -1.000000E+00	    2.300832E-03	    1.640000E-03	    7.900000E+02	    3.671289E-03	    3.851098E-03	    8.286917E+02	    8.677586E+04	
   -3.045964E-03	    3.744990E-02	    1.536954E-01	   -1.000000E+00	    2.307117E-03	    1.640000E-03	    7.900000E+02	    3.706203E-03	    3.849441E-03	    8.205319E+02	    8.631175E+04	
   -9.705980E-04	    3.759971E-02	    1.542185E-01	   -1.000000E+00	    2.309726E-03	    1.640000E-03	    7.900000E+02	    3.720699E-03	    3.848570E-03	    8.171503E+02	    8.611292E+04	
    9.705980E-04	    3.759971E-02	    1.542185E-01	   -1.000000E+00	    2.309726E-03	    1.640000E-03	    7.900000E+02	    3.720699E-03	    3.848570E-03	    8.171503E+02	    8.611292E+04	
    3.045964E-03	    3.744990E-02	    1.536954E-01	   -1.000000E+00	    2.307117E-03	    1.640000E-03	    7.900000E+02	    3.706203E-03	    3.849441E-03	    8.205319E+02	    8.631175E+04	
    5.389749E-03	    3.709128E-02	    1.524255E-01	   -1.000000E+00	    2.300832E-03	    1.640000E-03	    7.900000E+02	    3.671289E-03	    3.851098E-03	    8.286917E+02	    8.677586E+04	
    7.991410E-03	    3.644814E-02	    1.501314E-01	   -1.000000E+00	    2.289523E-03	    1.640000E-03	    7.900000E+02	    3.608460E-03	    3.853669E-03	    8.436835E+02	    8.761321E+04	
    1.081227E-02	    3.543735E-02	    1.464971E-01	   -1.000000E+00	    2.271681E-03	    1.640000E-03	    7.900000E+02	    3.509340E-03	    3.857018E-03	    8.682671E+02	    8.895812E+04	
    1.377688E-02	    3.397963E-02	    1.412008E-01	   -1.000000E+00	    2.245825E-03	    1.640000E-03	    7.900000E+02	    3.365695E-03	    3.860468E-03	    9.061337E+02	    9.097134E+04	
    1.676920E-02	    3.201768E-02	    1.339739E-01	   -1.000000E+00	    2.210809E-03	    1.640000E-03	    7.900000E+02	    3.171160E-03	    3.862422E-03	    9.622072E+02	    9.383467E+04	
    1.963920E-02	    2.953845E-02	    1.246813E-01	   -1.000000E+00	    2.166232E-03	    1.640000E-03	    7.900000E+02	    2.923511E-03	    3.859978E-03	    1.043055E+03	    9.773773E+04	
    2.222339E-02	    2.659249E-02	    1.134071E-01	   -1.000000E+00	    2.112836E-03	    1.640000E-03	    7.900000E+02	    2.626864E-03	    3.848758E-03	    1.157471E+03	    1.028537E+05	
    2.437706E-02	    2.330014E-02	    1.005085E-01	   -1.000000E+00	    2.052700E-03	    1.640000E-03	    7.900000E+02	    2.292778E-03	    3.823234E-03	    1.317334E+03	    1.093007E+05	
    2.600795E-02	    1.983707E-02	    8.660083E-02	   -1.000000E+00	    1.989067E-03	    1.640000E-03	    7.900000E+02	    1.939260E-03	    3.777684E-03	    1.538922E+03	    1.170830E+05	
    2.709675E-02	    1.640135E-02	    7.245692E-02	   -1.000000E+00	    1.925754E-03	    1.640000E-03	    7.900000E+02	    1.587520E-03	    3.707383E-03	    1.844911E+03	    1.260082E+05	
    2.769550E-02	    1.317441E-02	    5.885167E-02	   -1.000000E+00	    1.866352E-03	    1.640000E-03	    7.900000E+02	    1.257509E-03	    3.609096E-03	    2.267328E+03	    1.355900E+05	
    2.790585E-02	    1.029098E-02	    4.641827E-02	   -1.000000E+00	    1.813546E-03	    1.640000E-03	    7.900000E+02	    9.641433E-04	    3.480245E-03	    2.851644E+03	    1.450079E+05	
    2.784877E-02	    7.826716E-03	    3.557277E-02	   -1.000000E+00	    1.768822E-03	    1.640000E-03	    7.900000E+02	    7.156761E-04	    3.317852E-03	    3.662416E+03	    1.532700E+05	
    2.763789E-02	    5.802344E-03	    2.650878E-02	   -1.000000E+00	    1.732570E-03	    1.640000E-03	    7.900000E+02	    5.142803E-04	    3.119304E-03	    4.791648E+03	    1.596219E+05	
    2.736329E-02	    4.197246E-03	    1.922799E-02	   -1.000000E+00	    1.704372E-03	    1.640000E-03	    7.900000E+02	    3.576249E-04	    2.884129E-03	    6.371095E+03	    1.638699E+05	
    2.708618E-02	    2.965186E-03	    1.359153E-02	   -1.000000E+00	    1.683293E-03	    1.640000E-03	    7.900000E+02	    2.405146E-04	    2.614799E-03	    8.588633E+03	    1.663146E+05	
    2.684127E-02	    2.047766E-03	    9.377318E-03	   -1.000000E+00	    1.668142E-03	    1.640000E-03	    7.900000E+02	    1.563437E-04	    2.317325E-03	    1.170938E+04	    1.674780E+05	
    2.664303E-02	    1.384145E-03	    6.326614E-03	   -1.000000E+00	    1.657676E-03	    1.640000E-03	    7.900000E+02	    9.820269E-05	    2.001533E-03	    1.610150E+04	    1.678252E+05	
    2.649271E-02	    9.172633E-04	    4.179332E-03	   -1.000000E+00	    1.650730E-03	    1.640000E-03	    7.900000E+02	    5.961241E-05	    1.679690E-03	    2.225972E+04	    1.673904E+05	
    2.638444E-02	    5.973447E-04	    2.697273E-03	   -1.000000E+00	    1.646291E-03	    1.640000E-03	    7.900000E+02	    3.495239E-05	    1.361734E-03	    3.077814E+04	    1.647934E+05	
    2.630963E-02	    3.834235E-04	    1.676577E-03	   -1.000000E+00	    1.643549E-03	    1.640000E-03	    7.900000E+02	    1.971933E-05	    1.052070E-03	    4.214827E+04	    1.547667E+05	
    2.625963E-02	    2.434693E-04	    9.527120E-04	   -1.000000E+00	    1.641994E-03	    1.640000E-03	    7.900000E+02	    1.107695E-05	    8.233593E-04	    5.872138E+04	    1.240547E+05	
    2.622707E-02	    1.535850E-04	    4.097844E-04	   -1.000000E+00	    1.641792E-03	    1.640000E-03	    7.900000E+02	    9.953084E-06	    1.670581E-03	    1.325980E+05	    5.727855E+04	
    2.621549E-02	    1.218559E-04	    0.000000E+00	    0.000000E+00	    1.000000E-03	    1.000000E-03	    1.000000E+03	    0.000000E+00	    0.000000E+00	    0.000000E+00	    0.000000E+00	
   -2.621312E-02	    1.226982E-04	    0.000000E+00	    0.000000E+00	    1.000000E-03	    1.000000E-03	    1.000000E+03	    0.000000E+00	    0.000000E+00	    0.000000E+00	    0.000000E+00	
   -2.622407E-02	    1.546429E-04	    9.808631E-04	   -1.000000E+00	    1.683842E-03	    1.640000E-03	    7.900000E+02	    2.435652E-04	    1.652673E-03	    5.360419E+03	    3.231163E+04	
   -2.625487E-02	    2.451299E-04	    2.294750E-03	   -1.000000E+00	    1.642072E-03	    1.640000E-03	    7.900000E+02	    1.151266E-05	    6.990152E-04	    4.796649E+04	    7.112974E+04	
   -2.630213E-02	    3.859985E-04	    4.035743E-03	   -1.000000E+00	    1.643586E-03	    1.640000E-03	    7.900000E+02	    1.992323E-05	    8.215746E-04	    3.257724E+04	    8.855396E+04	
   -2.637273E-02	    6.012607E-04	    6.485319E-03	   -1.000000E+00	    1.646391E-03	    1.640000E-03	    7.900000E+02	    3.550520E-05	    9.900194E-04	    2.202819E+04	    9.403301E+04	
   -2.647465E-02	    9.230571E-04	    1.003031E-02	   -1.000000E+00	    1.651065E-03	    1.640000E-03	    7.900000E+02	    6.147049E-05	    1.135040E-03	    1.458719E+04	    9.510301E+04	
   -2.661563E-02	    1.392405E-03	    1.513976E-02	   -1.000000E+00	    1.658783E-03	    1.640000E-03	    7.900000E+02	    1.043525E-04	    1.264335E-03	    9.571638E+03	    9.465345E+04	
   -2.680046E-02	    2.058970E-03	    2.233958E-02	   -1.000000E+00	    1.671649E-03	    1.640000E-03	    7.900000E+02	    1.758282E-04	    1.397699E-03	    6.279890E+03	    9.320546E+04	
   -2.702658E-02	    2.979381E-03	    3.215607E-02	   -1.000000E+00	    1.693740E-03	    1.640000E-03	    7.900000E+02	    2.985534E-04	    1.570568E-03	    4.155867E+03	    9.017435E+04	
   -2.727815E-02	    4.213487E-03	    4.500920E-02	   -1.000000E+00	    1.733022E-03	    1.640000E-03	    7.900000E+02	    5.167871E-04	    1.832507E-03	    2.801309E+03	    8.444395E+04	
   -2.751915E-02	    5.817874E-03	    6.104884E-02	   -1.000000E+00	    1.803197E-03	    1.640000E-03	    7.900000E+02	    9.066481E-04	    2.231722E-03	    1.944592E+03	    7.537318E+04	
   -2.768762E-02	    7.835918E-03	    7.999090E-02	   -1.000000E+00	    1.922148E-03	    1.640000E-03	    7.900000E+02	    1.567488E-03	    2.785658E-03	    1.403947E+03	    6.388178E+04	
   -2.769392E-02	    1.028434E-02	    1.010883E-01	   -1.000000E+00	    2.104724E-03	    1.640000E-03	    7.900000E+02	    2.581799E-03	    3.459434E-03	    1.058546E+03	    5.191281E+04	
   -2.742680E-02	    1.313795E-02	    1.233128E-01	   -1.000000E+00	    2.354969E-03	    1.640000E-03	    7.900000E+02	    3.972050E-03	    4.179940E-03	    8.313473E+02	    4.111078E+04	
   -2.677024E-02	    1.631719E-02	    1.455931E-01	   -1.000000E+00	    2.663712E-03	    1.640000E-03	    7.900000E+02	    5.687287E-03	    4.869760E-03	    6.764404E+02	    3.227062E+04	
   -2.562986E-02	    1.968559E-02	    1.669470E-01	   -1.000000E+00	    3.010792E-03	    1.640000E-03	    7.900000E+02	    7.615513E-03	    5.471623E-03	    5.676022E+02	    2.549383E+04	
   -2.396187E-02	    2.306369E-02	    1.865368E-01	   -1.000000E+00	    3.369716E-03	    1.640000E-03	    7.900000E+02	    9.609534E-03	    5.957140E-03	    4.897366E+02	    2.051898E+04	
   -2.179243E-02	    2.625943E-02	    2.037228E-01	   -1.000000E+00	    3.713528E-03	    1.640000E-03	    7.900000E+02	    1.151960E-02	    6.323971E-03	    4.336901E+02	    1.697026E+04	
   -1.921707E-02	    2.910596E-02	    2.181196E-01	   -1.000000E+00	    4.020300E-03	    1.640000E-03	    7.900000E+02	    1.322389E-02	    6.586772E-03	    3.934962E+02	    1.448850E+04	
   -1.637921E-02	    3.149208E-02	    2.296197E-01	   -1.000000E+00	    4.276468E-03	    1.640000E-03	    7.900000E+02	    1.464705E-02	    6.767290E-03	    3.649991E+02	    1.278026E+04	
   -1.343733E-02	    3.337426E-02	    2.383650E-01	   -1.000000E+00	    4.477331E-03	    1.640000E-03	    7.900000E+02	    1.576295E-02	    6.887187E-03	    3.451688E+02	    1.162382E+04	
   -1.053466E-02	    3.476924E-02	    2.446745E-01	   -1.000000E+00	    4.625293E-03	    1.640000E-03	    7.900000E+02	    1.658496E-02	    6.964431E-03	    3.317404E+02	    1.085814E+04	
   -7.780522E-03	    3.573480E-02	    2.489587E-01	   -1.000000E+00	    4.727167E-03	    1.640000E-03	    7.900000E+02	    1.715093E-02	    7.012437E-03	    3.230045E+02	    1.036827E+04	
   -5.245075E-03	    3.634843E-02	    2.516443E-01	   -1.000000E+00	    4.791631E-03	    1.640000E-03	    7.900000E+02	    1.750906E-02	    7.040621E-03	    3.176693E+02	    1.007244E+04	
   -2.963434E-03	    3.669035E-02	    2.531240E-01	   -1.000000E+00	    4.827412E-03	    1.640000E-03	    7.900000E+02	    1.770785E-02	    7.055404E-03	    3.147627E+02	    9.912294E+03	
   -9.441974E-04	    3.683313E-02	    2.537310E-01	   -1.000000E+00	    4.842239E-03	    1.640000E-03	    7.900000E+02	    1.779022E-02	    7.061140E-03	    3.135600E+02	    9.846052E+03	
    9.441974E-04	    3.683313E-02	    2.537310E-01	   -1.000000E+00	    4.842239E-03	    1.640000E-03	    7.900000E+02	    1.779022E-02	    7.061140E-03	    3.135600E+02	    9.846052E+03	
    2.963434E-03	    3.669035E-02	    2.531240E-01	   -1.000000E+00	    4.827412E-03	    1.640000E-03	    7.900000E+02	    1.770785E-02	    7.055404E-03	    3.147627E+02	    9.912294E+03	
    5.245075E-03	    3.634843E-02	    2.516443E-01	   -1.000000E+00	    4.791631E-03	    1.640000E-03	    7.900000E+02	    1.750906E-02	    7.040621E-03	    3.176693E+02	    1.007244E+04	
    7.780522E-03	    3.573480E-02	    2.489587E-01	   -1.000000E+00	    4.727167E-03	    1.640000E-03	    7.900000E+02	    1.715093E-02	    7.012437E-03	    3.230045E+02	    1.036827E+04	
    1.053466E-02	    3.476924E-02	    2.446745E-01	   -1.000000E+00	    4.625293E-03	    1.640000E-03	    7.900000E+02	    1.658496E-02	    6.964431E-03	    3.317404E+02	    1.085814E+04	
    1.343733E-02	    3.337426E-02	    2.383650E-01	   -1.000000E+00	    4.477331E-03	    1.640000E-03	    7.900000E+02	    1.576295E-02	    6.887187E-03	    3.451688E+02	    1.162382E+04	
    1.637921E-02	    3.149208E-02	    2.296197E-01	   -1.000000E+00	    4.276468E-03	    1.640000E-03	    7.900000E+02	    1.464705E-02	    6.767290E-03	    3.649991E+02	    1.278026E+04	
    1.921707E-02	    2.910596E-02	    2.181196E-01	   -1.000000E+00	    4.020300E-03	    1.640000E-03	    7.900000E+02	    1.322389E-02	    6.586772E-03	    3.934962E+02	    1.448850E+04	
    2.179243E-02	    2.625943E-02	    2.037228E-01	   -1.000000E+00	    3.713528E-03	    1.640000E-03	    7.900000E+02	    1.151960E-02	    6.323971E-03	    4.336901E+02	    1.697026E+04	
    2.396187E-02	    2.306369E-02	    1.865368E-01	   -1.000000E+00	    3.369716E-03	    1.640000E-03	    7.900000E+02	    9.609534E-03	    5.957140E-03	    4.897366E+02	    2.051898E+04	
    2.562986E-02	    1.968559E-02	    1.669470E-01	   -1.000000E+00	    3.010792E-03	    1.640000E-03	    7.900000E+02	    7.615513E-03	    5.471623E-03	    5.676022E+02	    2.549383E+04	
    2.677024E-02	    1.631719E-02	    1.455931E-01	   -1.000000E+00	    2.663712E-03	    1.640000E-03	    7.900000E+02	    5.687287E-03	    4.869760E-03	    6.764404E+02	    3.227062E+04	
    2.742680E-02	    1.313795E-02	    1.233128E-01	   -1.000000E+00	    2.354969E-03	    1.640000E-03	    7.900000E+02	    3.972050E-03	    4.179940E-03	    8.313473E+02	    4.111078E+04	
    2.769392E-02	    1.028434E-02	    1.010883E-01	   -1.000000E+00	    2.104724E-03	    1.640000E-03	    7.900000E+02	    2.581799E-03	    3.459434E-03	    1.058546E+03	    5.191281E+04	
    2.768762E-02	    7.835918E-03	    7.999090E-02	   -1.000000E+00	    1.922148E-03	    1.640000E-03	    7.900000E+02	    1.567488E-03	    2.785658E-03	    1.403947E+03	    6.388178E+04	
    2.751915E-02	    5.817874E-03	    6.104884E-02	   -1.000000E+00	    1.803197E-03	    1.640000E-03	    7.900000E+02	    9.066481E-04	    2.231722E-03	    1.944592E+03	    7.537318E+04	
    2.727815E-02	    4.213487E-03	    4.500920E-02	   -1.000000E+00	    1.733022E-03	    1.640000E-03	    7.900000E+02	    5.167871E-04	    1.832507E-03	    2.801309E+03	    8.444395E+04	
    2.702658E-02	    2.979381E-03	    3.215607E-02	   -1.000000E+00	    1.693740E-03	    1.640000E-03	    7.900000E+02	    2.985534E-04	    1.570568E-03	    4.155867E+03	    9.017435E+04	
    2.680046E-02	    2.058970E-03	    2.233958E-02	   -1.000000E+00	    1.671649E-03	    1.640000E-03	    7.900000E+02	    1.758282E-04	    1.397699E-03	    6.279890E+03	    9.320546E+04	
    2.661563E-02	    1.392405E-03	    1.513976E-02	   -1.000000E+00	    1.658783E-03	    1.640000E-03	    7.900000E+02	    1.043525E-04	    1.264335E-03	    9.571638E+03	    9.465345E+04	
    2.647465E-02	    9.230571E-04	    1.003031E-02	   -1.000000E+00	    1.651065E-03	    1.640000E-03	    7.900000E+02	    6.147049E-05	    1.135040E-03	    1.458719E+04	    9.510301E+04	
    2.637273E-02	    6.012607E-04	    6.485319E-03	   -1.000000E+00	    1.646391E-03	    1.640000E-03	    7.900000E+02	    3.550520E-05	    9.900194E-04	    2.202819E+04	    9.403301E+04	
    2.630213E-02	    3.859985E-04	    4.035743E-03	   -1.000000E+00	    1.643586E-03	    1.640000E-03	    7.900000E+02	    1.992323E-05	    8.215746E-04	    3.257724E+04	    8.855396E+04	
    2.625487E-02	    2.451299E-04	    2.294750E-03	   -1.000000E+00	    1.642072E-03	    1.640000E-03	    7.900000E+02	    1.151266E-05	    6.990152E-04	    4.796649E+04	    7.112974E+04	
    2.622407E-02	    1.546429E-04	    9.808631E-04	   -1.000000E+00	    1.683842E-03	    1.640000E-03	    7.900000E+02	    2.435652E-04	    1.652673E-03	    5.360419E+03	    3.231163E+04	
    2.621312E-02	    1.226982E-04	    0.000000E+00	    0.000000E+00	    1.000000E-03	    1.000000E-03	    1.000000E+03	    0.000000E+00	    0.000000E+00	    0.000000E+00	    0.000000E+00	
   -2.620998E-02	    1.237310E-04	    0.000000E+00	    0.000000E+00	    1.000000E-03	    1.000000E-03	    1.000000E+03	    0.000000E+00	    0.000000E+00	    0.000000E+00	    0.000000E+00	
   -2.622012E-02	    1.559397E-04	    1.717499E-03	   -1.000000E+00	    1.683631E-03	    1.640000E-03	    7.900000E+02	    2.423928E-04	    1.637244E-03	    5.336060E+03	    3.277511E+04	