Title="Fields"
Variables="X""Y""Velocity""Phi""Effective Viscosity""Dynamic Viscosity""Density""Eddy Viscosity""K""Omega""S"
Zone I=82 J=82 F=POINT
   -2.605839E-02	    1.200081E-04	    0.000000E+00	   -1.000000E+00	    1.640000E-03	    1.640000E-03	    7.900000E+02	    0.000000E+00	    0.000000E+00	    0.000000E+00	    0.000000E+00	
   -2.606574E-02	    1.387060E-04	    0.000000E+00	   -1.000000E+00	    1.640000E-03	    1.640000E-03	    7.900000E+02	    0.000000E+00	    0.000000E+00	    0.000000E+00	    0.000000E+00	
   -2.608393E-02	    1.852087E-04	    0.000000E+00	   -1.000000E+00	    1.640000E-03	    1.640000E-03	    7.900000E+02	    0.000000E+00	    0.000000E+00	    0.000000E+00	    0.000000E+00	
   -2.610793E-02	    2.469127E-04	    0.000000E+00	   -1.000000E+00	    1.640000E-03	    1.640000E-03	    7.900000E+02	    0.000000E+00	    0.000000E+00	    0.000000E+00	    0.000000E+00	
   -2.613932E-02	    3.282930E-04	    0.000000E+00	   -1.000000E+00	    1.640000E-03	    1.640000E-03	    7.900000E+02	    0.000000E+00	    0.000000E+00	    0.000000E+00	    0.000000E+00	
   -2.618000E-02	    4.348740E-04	    0.000000E+00	   -1.000000E+00	    1.640000E-03	    1.640000E-03	    7.900000E+02	    0.000000E+00	    0.000000E+00	    0.000000E+00	    0.000000E+00	
   -2.623211E-02	    5.733635E-04	    0.000000E+00	   -1.000000E+00	    1.640000E-03	    1.640000E-03	    7.900000E+02	    0.000000E+00	    0.000000E+00	    0.000000E+00	    0.000000E+00	
   -2.629801E-02	    7.517672E-04	    0.000000E+00	   -1.000000E+00	    1.640000E-03	    1.640000E-03	    7.900000E+02	    0.000000E+00	    0.000000E+00	    0.000000E+00	    0.000000E+00	
   -2.638013E-02	    9.794666E-04	    0.000000E+00	   -1.000000E+00	    1.640000E-03	    1.640000E-03	    7.900000E+02	    0.000000E+00	    0.000000E+00	    0.000000E+00	    0.000000E+00	
   -2.648076E-02	    1.267248E-03	    0.000000E+00	   -1.000000E+00	    1.640000E-03	    1.640000E-03	    7.900000E+02	    0.000000E+00	    0.000000E+00	    0.000000E+00	    0.000000E+00	
   -2.660173E-02	    1.627266E-03	    0.000000E+00	   -1.000000E+00	    1.640000E-03	    1.640000E-03	    7.900000E+02	    0.000000E+00	    0.000000E+00	    0.000000E+00	    0.000000E+00	
   -2.674399E-02	    2.072924E-03	    0.000000E+00	   -1.000000E+00	    1.640000E-03	    1.640000E-03	    7.900000E+02	    0.000000E+00	    0.000000E+00	    0.000000E+00	    0.000000E+00	
   -2.690713E-02	    2.618649E-03	    0.000000E+00	   -1.000000E+00	    1.640000E-03	    1.640000E-03	    7.900000E+02	    0.000000E+00	    0.000000E+00	    0.000000E+00	    0.000000E+00	
   -2.708867E-02	    3.279541E-03	    0.000000E+00	   -1.000000E+00	    1.640000E-03	    1.640000E-03	    7.900000E+02	    0.000000E+00	    0.000000E+00	    0.000000E+00	    0.000000E+00	
   -2.728339E-02	    4.070860E-03	    0.000000E+00	   -1.000000E+00	    1.640000E-03	    1.640000E-03	    7.900000E+02	    0.000000E+00	    0.000000E+00	    0.000000E+00	    0.000000E+00	
   -2.748263E-02	    5.007318E-03	    0.000000E+00	   -1.000000E+00	    1.640000E-03	    1.640000E-03	    7.900000E+02	    0.000000E+00	    0.000000E+00	    0.000000E+00	    0.000000E+00	
   -2.767360E-02	    6.102142E-03	    0.000000E+00	   -1.000000E+00	    1.640000E-03	    1.640000E-03	    7.900000E+02	    0.000000E+00	    0.000000E+00	    0.000000E+00	    0.000000E+00	
   -2.783892E-02	    7.365887E-03	    0.000000E+00	   -1.000000E+00	    1.640000E-03	    1.640000E-03	    7.900000E+02	    0.000000E+00	    0.000000E+00	    0.000000E+00	    0.000000E+00	
   -2.795651E-02	    8.805012E-03	    0.000000E+00	   -1.000000E+00	    1.640000E-03	    1.640000E-03	    7.900000E+02	    0.000000E+00	    0.000000E+00	    0.000000E+00	    0.000000E+00	
   -2.799995E-02	    1.042028E-02	    0.000000E+00	   -1.000000E+00	    1.640000E-03	    1.640000E-03	    7.900000E+02	    0.000000E+00	    0.000000E+00	    0.000000E+00	    0.000000E+00	
   -2.793947E-02	    1.220517E-02	    0.000000E+00	   -1.000000E+00	    1.640000E-03	    1.640000E-03	    7.900000E+02	    0.000000E+00	    0.000000E+00	    0.000000E+00	    0.000000E+00	
   -2.774375E-02	    1.414445E-02	    0.000000E+00	   -1.000000E+00	    1.640000E-03	    1.640000E-03	    7.900000E+02	    0.000000E+00	    0.000000E+00	    0.000000E+00	    0.000000E+00	
   -2.738241E-02	    1.621338E-02	    0.000000E+00	   -1.000000E+00	    1.640000E-03	    1.640000E-03	    7.900000E+02	    0.000000E+00	    0.000000E+00	    0.000000E+00	    0.000000E+00	
   -2.682902E-02	    1.837775E-02	    0.000000E+00	   -1.000000E+00	    1.640000E-03	    1.640000E-03	    7.900000E+02	    0.000000E+00	    0.000000E+00	    0.000000E+00	    0.000000E+00	
   -2.606427E-02	    2.059505E-02	    0.000000E+00	   -1.000000E+00	    1.640000E-03	    1.640000E-03	    7.900000E+02	    0.000000E+00	    0.000000E+00	    0.000000E+00	    0.000000E+00	
   -2.507886E-02	    2.281694E-02	    0.000000E+00	   -1.000000E+00	    1.640000E-03	    1.640000E-03	    7.900000E+02	    0.000000E+00	    0.000000E+00	    0.000000E+00	    0.000000E+00	
   -2.387529E-02	    2.499275E-02	    0.000000E+00	   -1.000000E+00	    1.640000E-03	    1.640000E-03	    7.900000E+02	    0.000000E+00	    0.000000E+00	    0.000000E+00	    0.000000E+00	
   -2.246837E-02	    2.707347E-02	    0.000000E+00	   -1.000000E+00	    1.640000E-03	    1.640000E-03	    7.900000E+02	    0.000000E+00	    0.000000E+00	    0.000000E+00	    0.000000E+00	
   -2.088415E-02	    2.901581E-02	    0.000000E+00	   -1.000000E+00	    1.640000E-03	    1.640000E-03	    7.900000E+02	    0.000000E+00	    0.000000E+00	    0.000000E+00	    0.000000E+00	
   -1.915746E-02	    3.078539E-02	    0.000000E+00	   -1.000000E+00	    1.640000E-03	    1.640000E-03	    7.900000E+02	    0.000000E+00	    0.000000E+00	    0.000000E+00	    0.000000E+00	
   -1.732851E-02	    3.235871E-02	    0.000000E+00	   -1.000000E+00	    1.640000E-03	    1.640000E-03	    7.900000E+02	    0.000000E+00	    0.000000E+00	    0.000000E+00	    0.000000E+00	
   -1.543925E-02	    3.372373E-02	    0.000000E+00	   -1.000000E+00	    1.640000E-03	    1.640000E-03	    7.900000E+02	    0.000000E+00	    0.000000E+00	    0.000000E+00	    0.000000E+00	
   -1.353005E-02	    3.487904E-02	    0.000000E+00	   -1.000000E+00	    1.640000E-03	    1.640000E-03	    7.900000E+02	    0.000000E+00	    0.000000E+00	    0.000000E+00	    0.000000E+00	
   -1.163709E-02	    3.583221E-02	    0.000000E+00	   -1.000000E+00	    1.640000E-03	    1.640000E-03	    7.900000E+02	    0.000000E+00	    0.000000E+00	    0.000000E+00	    0.000000E+00	
   -9.790716E-03	    3.659747E-02	    0.000000E+00	   -1.000000E+00	    1.640000E-03	    1.640000E-03	    7.900000E+02	    0.000000E+00	    0.000000E+00	    0.000000E+00	    0.000000E+00	
   -8.014752E-03	    3.719343E-02	    0.000000E+00	   -1.000000E+00	    1.640000E-03	    1.640000E-03	    7.900000E+02	    0.000000E+00	    0.000000E+00	    0.000000E+00	    0.000000E+00	
   -6.326517E-03	    3.764092E-02	    0.000000E+00	   -1.000000E+00	    1.640000E-03	    1.640000E-03	    7.900000E+02	    0.000000E+00	    0.000000E+00	    0.000000E+00	    0.000000E+00	
   -4.737394E-03	    3.796134E-02	    0.000000E+00	   -1.000000E+00	    1.640000E-03	    1.640000E-03	    7.900000E+02	    0.000000E+00	    0.000000E+00	    0.000000E+00	    0.000000E+00	
   -3.253693E-03	    3.817533E-02	    0.000000E+00	   -1.000000E+00	    1.640000E-03	    1.640000E-03	    7.900000E+02	    0.000000E+00	    0.000000E+00	    0.000000E+00	    0.000000E+00	
   -1.877627E-03	    3.830199E-02	    0.000000E+00	   -1.000000E+00	    1.640000E-03	    1.640000E-03	    7.900000E+02	    0.000000E+00	    0.000000E+00	    0.000000E+00	    0.000000E+00	
   -6.082677E-04	    3.835841E-02	    0.000000E+00	   -1.000000E+00	    1.640000E-03	    1.640000E-03	    7.900000E+02	    0.000000E+00	    0.000000E+00	    0.000000E+00	    0.000000E+00	
    6.082677E-04	    3.835841E-02	    0.000000E+00	   -1.000000E+00	    1.640000E-03	    1.640000E-03	    7.900000E+02	    0.000000E+00	    0.000000E+00	    0.000000E+00	    0.000000E+00	
    1.877627E-03	    3.830199E-02	    0.000000E+00	   -1.000000E+00	    1.640000E-03	    1.640000E-03	    7.900000E+02	    0.000000E+00	    0.000000E+00	    0.000000E+00	    0.000000E+00	
    3.253693E-03	    3.817533E-02	    0.000000E+00	   -1.000000E+00	    1.640000E-03	    1.640000E-03	    7.900000E+02	    0.000000E+00	    0.000000E+00	    0.000000E+00	    0.000000E+00	
    4.737394E-03	    3.796134E-02	    0.000000E+00	   -1.000000E+00	    1.640000E-03	    1.640000E-03	    7.900000E+02	    0.000000E+00	    0.000000E+00	    0.000000E+00	    0.000000E+00	
    6.326517E-03	    3.764092E-02	    0.000000E+00	   -1.000000E+00	    1.640000E-03	    1.640000E-03	    7.900000E+02	    0.000000E+00	    0.000000E+00	    0.000000E+00	    0.000000E+00	
    8.014752E-03	    3.719343E-02	    0.000000E+00	   -1.000000E+00	    1.640000E-03	    1.640000E-03	    7.900000E+02	    0.000000E+00	    0.000000E+00	    0.000000E+00	    0.000000E+00	
    9.790716E-03	    3.659747E-02	    0.000000E+00	   -1.000000E+00	    1.640000E-03	    1.640000E-03	    7.900000E+02	    0.000000E+00	    0.000000E+00	    0.000000E+00	    0.000000E+00	
    1.163709E-02	    3.583221E-02	    0.000000E+00	   -1.000000E+00	    1.640000E-03	    1.640000E-03	    7.900000E+02	    0.000000E+00	    0.000000E+00	    0.000000E+00	    0.000000E+00	
    1.353005E-02	    3.487904E-02	    0.000000E+00	   -1.000000E+00	    1.640000E-03	    1.640000E-03	    7.900000E+02	    0.000000E+00	    0.000000E+00	    0.000000E+00	    0.000000E+00	
    1.543925E-02	    3.372373E-02	    0.000000E+00	   -1.000000E+00	    1.640000E-03	    1.640000E-03	    7.900000E+02	    0.000000E+00	    0.000000E+00	    0.000000E+00	    0.000000E+00	
    1.732851E-02	    3.235871E-02	    0.000000E+00	   -1.000000E+00	    1.640000E-03	    1.640000E-03	    7.900000E+02	    0.000000E+00	    0.000000E+00	    0.000000E+00	    0.000000E+00	
    1.915746E-02	    3.078539E-02	    0.000000E+00	   -1.000000E+00	    1.640000E-03	    1.640000E-03	    7.900000E+02	    0.000000E+00	    0.000000E+00	    0.000000E+00	    0.000000E+00	
    2.088415E-02	    2.901581E-02	    0.000000E+00	   -1.000000E+00	    1.640000E-03	    1.640000E-03	    7.900000E+02	    0.000000E+00	    0.000000E+00	    0.000000E+00	    0.000000E+00	
    2.246837E-02	    2.707347E-02	    0.000000E+00	   -1.000000E+00	    1.640000E-03	    1.640000E-03	    7.900000E+02	    0.000000E+00	    0.000000E+00	    0.000000E+00	    0.000000E+00	
    2.387529E-02	    2.499275E-02	    0.000000E+00	   -1.000000E+00	    1.640000E-03	    1.640000E-03	    7.900000E+02	    0.000000E+00	    0.000000E+00	    0.000000E+00	    0.000000E+00	
    2.507886E-02	    2.281694E-02	    0.000000E+00	   -1.000000E+00	    1.640000E-03	    1.640000E-03	    7.900000E+02	    0.000000E+00	    0.000000E+00	    0.000000E+00	    0.000000E+00	
    2.606427E-02	    2.059505E-02	    0.000000E+00	   -1.000000E+00	    1.640000E-03	    1.640000E-03	    7.900000E+02	    0.000000E+00	    0.000000E+00	    0.000000E+00	    0.000000E+00	
    2.682902E-02	    1.837775E-02	    0.000000E+00	   -1.000000E+00	    1.640000E-03	    1.640000E-03	    7.900000E+02	    0.000000E+00	    0.000000E+00	    0.000000E+00	    0.000000E+00	
    2.738241E-02	    1.621338E-02	    0.000000E+00	   -1.000000E+00	    1.640000E-03	    1.640000E-03	    7.900000E+02	    0.000000E+00	    0.000000E+00	    0.000000E+00	    0.000000E+00	
    2.774375E-02	    1.414445E-02	    0.000000E+00	   -1.000000E+00	    1.640000E-03	    1.640000E-03	    7.900000E+02	    0.000000E+00	    0.000000E+00	    0.000000E+00	    0.000000E+00	
    2.793947E-02	    1.220517E-02	    0.000000E+00	   -1.000000E+00	    1.640000E-03	    1.640000E-03	    7.900000E+02	    0.000000E+00	    0.000000E+00	    0.000000E+00	    0.000000E+00	
    2.799995E-02	    1.042028E-02	    0.000000E+00	   -1.000000E+00	    1.640000E-03	    1.640000E-03	    7.900000E+02	    0.000000E+00	    0.000000E+00	    0.000000E+00	    0.000000E+00	
    2.795651E-02	    8.805012E-03	    0.000000E+00	   -1.000000E+00	    1.640000E-03	    1.640000E-03	    7.900000E+02	    0.000000E+00	    0.000000E+00	    0.000000E+00	    0.000000E+00	
    2.783892E-02	    7.365887E-03	    0.000000E+00	   -1.000000E+00	    1.640000E-03	    1.640000E-03	    7.900000E+02	    0.000000E+00	    0.000000E+00	    0.000000E+00	    0.000000E+00	
    2.767360E-02	    6.102142E-03	    0.000000E+00	   -1.000000E+00	    1.640000E-03	    1.640000E-03	    7.900000E+02	    0.000000E+00	    0.000000E+00	    0.000000E+00	    0.000000E+00	
    2.748263E-02	    5.007318E-03	    0.000000E+00	   -1.000000E+00	    1.640000E-03	    1.640000E-03	    7.900000E+02	    0.000000E+00	    0.000000E+00	    0.000000E+00	    0.000000E+00	
    2.728339E-02	    4.070860E-03	    0.000000E+00	   -1.000000E+00	    1.640000E-03	    1.640000E-03	    7.900000E+02	    0.000000E+00	    0.000000E+00	    0.000000E+00	    0.000000E+00	
    2.708867E-02	    3.279541E-03	    0.000000E+00	   -1.000000E+00	    1.640000E-03	    1.640000E-03	    7.900000E+02	    0.000000E+00	    0.000000E+00	    0.000000E+00	    0.000000E+00	
    2.690713E-02	    2.618649E-03	    0.000000E+00	   -1.000000E+00	    1.640000E-03	    1.640000E-03	    7.900000E+02	    0.000000E+00	    0.000000E+00	    0.000000E+00	    0.000000E+00	
    2.674399E-02	    2.072924E-03	    0.000000E+00	   -1.000000E+00	    1.640000E-03	    1.640000E-03	    7.900000E+02	    0.000000E+00	    0.000000E+00	    0.000000E+00	    0.000000E+00	
    2.660173E-02	    1.627266E-03	    0.000000E+00	   -1.000000E+00	    1.640000E-03	    1.640000E-03	    7.900000E+02	    0.000000E+00	    0.000000E+00	    0.000000E+00	    0.000000E+00	
    2.648076E-02	    1.267248E-03	    0.000000E+00	   -1.000000E+00	    1.640000E-03	    1.640000E-03	    7.900000E+02	    0.000000E+00	    0.000000E+00	    0.000000E+00	    0.000000E+00	
    2.638013E-02	    9.794666E-04	    0.000000E+00	   -1.000000E+00	    1.640000E-03	    1.640000E-03	    7.900000E+02	    0.000000E+00	    0.000000E+00	    0.000000E+00	    0.000000E+00	
    2.629801E-02	    7.517672E-04	    0.000000E+00	   -1.000000E+00	    1.640000E-03	    1.640000E-03	    7.900000E+02	    0.000000E+00	    0.000000E+00	    0.000000E+00	    0.000000E+00	
    2.623211E-02	    5.733635E-04	    0.000000E+00	   -1.000000E+00	    1.640000E-03	    1.640000E-03	    7.900000E+02	    0.000000E+00	    0.000000E+00	    0.000000E+00	    0.000000E+00	
    2.618000E-02	    4.348740E-04	    0.000000E+00	   -1.000000E+00	    1.640000E-03	    1.640000E-03	    7.900000E+02	    0.000000E+00	    0.000000E+00	    0.000000E+00	    0.000000E+00	
    2.613932E-02	    3.282930E-04	    0.000000E+00	   -1.000000E+00	    1.640000E-03	    1.640000E-03	    7.900000E+02	    0.000000E+00	    0.000000E+00	    0.000000E+00	    0.000000E+00	
    2.610793E-02	    2.469127E-04	    0.000000E+00	   -1.000000E+00	    1.640000E-03	    1.640000E-03	    7.900000E+02	    0.000000E+00	    0.000000E+00	    0.000000E+00	    0.000000E+00	
    2.608393E-02	    1.852087E-04	    0.000000E+00	   -1.000000E+00	    1.640000E-03	    1.640000E-03	    7.900000E+02	    0.000000E+00	    0.000000E+00	    0.000000E+00	    0.000000E+00	
    2.606574E-02	    1.387060E-04	    0.000000E+00	   -1.000000E+00	    1.640000E-03	    1.640000E-03	    7.900000E+02	    0.000000E+00	    0.000000E+00	    0.000000E+00	    0.000000E+00	
    2.605839E-02	    1.200081E-04	    0.000000E+00	   -1.000000E+00	    1.640000E-03	    1.640000E-03	    7.900000E+02	    0.000000E+00	    0.000000E+00	    0.000000E+00	    0.000000E+00	
   -2.605779E-02	    1.202431E-04	    0.000000E+00	   -1.000000E+00	    1.640000E-03	    1.640000E-03	    7.900000E+02	    0.000000E+00	    0.000000E+00	    0.000000E+00	    0.000000E+00	
   -2.606504E-02	    1.389771E-04	    6.268548E-05	   -1.000000E+00	    1.640492E-03	    1.640000E-03	    7.900000E+02	    3.281348E-06	    6.128689E-04	    1.475511E+05	    7.018317E+03	
   -2.608300E-02	    1.855691E-04	    1.895288E-04	   -1.000000E+00	    1.640449E-03	    1.640000E-03	    7.900000E+02	    2.990904E-06	    2.855877E-04	    7.543348E+04	    3.607987E+04	
   -2.610669E-02	    2.473901E-04	    3.299102E-04	   -1.000000E+00	    1.640609E-03	    1.640000E-03	    7.900000E+02	    4.058509E-06	    2.958753E-04	    5.759295E+04	    6.149970E+04	
   -2.613767E-02	    3.289227E-04	    4.929983E-04	   -1.000000E+00	    1.640913E-03	    1.640000E-03	    7.900000E+02	    6.086006E-06	    3.763663E-04	    4.885460E+04	    7.766747E+04	
   -2.617781E-02	    4.356991E-04	    6.899588E-04	   -1.000000E+00	    1.641352E-03	    1.640000E-03	    7.900000E+02	    9.015346E-06	    4.706696E-04	    4.124401E+04	    8.666745E+04	
   -2.622921E-02	    5.744362E-04	    9.338186E-04	   -1.000000E+00	    1.641962E-03	    1.640000E-03	    7.900000E+02	    1.308023E-05	    5.699808E-04	    3.442485E+04	    9.128830E+04	
   -2.629421E-02	    7.531478E-04	    1.239872E-03	   -1.000000E+00	    1.642800E-03	    1.640000E-03	    7.900000E+02	    1.866476E-05	    6.751227E-04	    2.857508E+04	    9.355809E+04	
   -2.637516E-02	    9.812223E-04	    1.625847E-03	   -1.000000E+00	    1.643940E-03	    1.640000E-03	    7.900000E+02	    2.626740E-05	    7.877324E-04	    2.369129E+04	    9.469479E+04	
   -2.647430E-02	    1.269449E-03	    2.111873E-03	   -1.000000E+00	    1.645475E-03	    1.640000E-03	    7.900000E+02	    3.649863E-05	    9.086102E-04	    1.966655E+04	    9.534251E+04	
   -2.659339E-02	    1.629980E-03	    2.720317E-03	   -1.000000E+00	    1.647512E-03	    1.640000E-03	    7.900000E+02	    5.008138E-05	    1.037560E-03	    1.636681E+04	    9.579936E+04	
   -2.673332E-02	    2.076203E-03	    3.475516E-03	   -1.000000E+00	    1.650177E-03	    1.640000E-03	    7.900000E+02	    6.784735E-05	    1.173584E-03	    1.366496E+04	    9.617619E+04	
   -2.689357E-02	    2.622516E-03	    4.403338E-03	   -1.000000E+00	    1.653609E-03	    1.640000E-03	    7.900000E+02	    9.072655E-05	    1.315149E-03	    1.145164E+04	    9.648998E+04	
   -2.707157E-02	    3.283966E-03	    5.530484E-03	   -1.000000E+00	    1.657959E-03	    1.640000E-03	    7.900000E+02	    1.197283E-04	    1.460439E-03	    9.636375E+03	    9.671244E+04	
   -2.726202E-02	    4.075731E-03	    6.883464E-03	   -1.000000E+00	    1.663387E-03	    1.640000E-03	    7.900000E+02	    1.559109E-04	    1.607543E-03	    8.145416E+03	    9.679314E+04	
   -2.745616E-02	    5.012406E-03	    8.487223E-03	   -1.000000E+00	    1.670051E-03	    1.640000E-03	    7.900000E+02	    2.003374E-04	    1.754584E-03	    6.918934E+03	    9.667027E+04	
   -2.764112E-02	    6.107057E-03	    1.036340E-02	   -1.000000E+00	    1.678102E-03	    1.640000E-03	    7.900000E+02	    2.540152E-04	    1.899794E-03	    5.908456E+03	    9.627688E+04	
   -2.779948E-02	    7.370029E-03	    1.252824E-02	   -1.000000E+00	    1.687673E-03	    1.640000E-03	    7.900000E+02	    3.178171E-04	    2.041559E-03	    5.074715E+03	    9.554799E+04	
   -2.790919E-02	    8.807526E-03	    1.499023E-02	   -1.000000E+00	    1.698858E-03	    1.640000E-03	    7.900000E+02	    3.923876E-04	    2.178453E-03	    4.385913E+03	    9.443182E+04	
   -2.794387E-02	    1.042002E-02	    1.774756E-02	   -1.000000E+00	    1.711705E-03	    1.640000E-03	    7.900000E+02	    4.780365E-04	    2.309273E-03	    3.816290E+03	    9.290452E+04	
   -2.787395E-02	    1.220068E-02	    2.078568E-02	   -1.000000E+00	    1.726195E-03	    1.640000E-03	    7.900000E+02	    5.746319E-04	    2.433062E-03	    3.344957E+03	    9.098281E+04	
   -2.766839E-02	    1.413398E-02	    2.407543E-02	   -1.000000E+00	    1.742225E-03	    1.640000E-03	    7.900000E+02	    6.815026E-04	    2.549095E-03	    2.954919E+03	    8.872794E+04	
   -2.729719E-02	    1.619495E-02	    2.757213E-02	   -1.000000E+00	    1.759605E-03	    1.640000E-03	    7.900000E+02	    7.973650E-04	    2.656823E-03	    2.632283E+03	    8.623711E+04	
   -2.673440E-02	    1.834923E-02	    3.121618E-02	   -1.000000E+00	    1.778045E-03	    1.640000E-03	    7.900000E+02	    9.202984E-04	    2.755807E-03	    2.365632E+03	    8.362575E+04	
   -2.596131E-02	    2.055434E-02	    3.493522E-02	   -1.000000E+00	    1.797169E-03	    1.640000E-03	    7.900000E+02	    1.047794E-03	    2.845688E-03	    2.145548E+03	    8.100813E+04	
   -2.496915E-02	    2.276214E-02	    3.864827E-02	   -1.000000E+00	    1.816534E-03	    1.640000E-03	    7.900000E+02	    1.176896E-03	    2.926220E-03	    1.964247E+03	    7.848266E+04	
   -2.376093E-02	    2.492232E-02	    4.227140E-02	   -1.000000E+00	    1.835663E-03	    1.640000E-03	    7.900000E+02	    1.304420E-03	    2.997325E-03	    1.815280E+03	    7.612425E+04	
   -2.235184E-02	    2.698642E-02	    4.572440E-02	   -1.000000E+00	    1.854084E-03	    1.640000E-03	    7.900000E+02	    1.427229E-03	    3.059142E-03	    1.693297E+03	    7.398267E+04	
   -2.076811E-02	    2.891176E-02	    4.893725E-02	   -1.000000E+00	    1.871376E-03	    1.640000E-03	    7.900000E+02	    1.542505E-03	    3.112041E-03	    1.593844E+03	    7.208495E+04	
   -1.904456E-02	    3.066460E-02	    5.185528E-02	   -1.000000E+00	    1.887196E-03	    1.640000E-03	    7.900000E+02	    1.647973E-03	    3.156599E-03	    1.513201E+03	    7.043961E+04	
   -1.722120E-02	    3.222205E-02	    5.444223E-02	   -1.000000E+00	    1.901306E-03	    1.640000E-03	    7.900000E+02	    1.742040E-03	    3.193549E-03	    1.448246E+03	    6.904141E+04	
   -1.533964E-02	    3.357253E-02	    5.668075E-02	   -1.000000E+00	    1.913576E-03	    1.640000E-03	    7.900000E+02	    1.823842E-03	    3.223714E-03	    1.396356E+03	    6.787569E+04	
   -1.343979E-02	    3.471499E-02	    5.857092E-02	   -1.000000E+00	    1.923979E-03	    1.640000E-03	    7.900000E+02	    1.893191E-03	    3.247948E-03	    1.355319E+03	    6.692202E+04	
   -1.155734E-02	    3.565717E-02	    6.012715E-02	   -1.000000E+00	    1.932571E-03	    1.640000E-03	    7.900000E+02	    1.950472E-03	    3.267086E-03	    1.323268E+03	    6.615706E+04	
   -9.722200E-03	    3.641337E-02	    6.137435E-02	   -1.000000E+00	    1.939474E-03	    1.640000E-03	    7.900000E+02	    1.996495E-03	    3.281907E-03	    1.298629E+03	    6.555663E+04	
   -7.957757E-03	    3.700211E-02	    6.234412E-02	   -1.000000E+00	    1.944853E-03	    1.640000E-03	    7.900000E+02	    2.032353E-03	    3.293118E-03	    1.280074E+03	    6.509712E+04	
   -6.280990E-03	    3.744410E-02	    6.307133E-02	   -1.000000E+00	    1.948893E-03	    1.640000E-03	    7.900000E+02	    2.059285E-03	    3.301344E-03	    1.266489E+03	    6.475643E+04	
   -4.703014E-03	    3.776052E-02	    6.359135E-02	   -1.000000E+00	    1.951785E-03	    1.640000E-03	    7.900000E+02	    2.078568E-03	    3.307125E-03	    1.256937E+03	    6.451448E+04	
   -3.229949E-03	    3.797183E-02	    6.393813E-02	   -1.000000E+00	    1.953716E-03	    1.640000E-03	    7.900000E+02	    2.091442E-03	    3.310923E-03	    1.250634E+03	    6.435343E+04	
   -1.863880E-03	    3.809689E-02	    6.414287E-02	   -1.000000E+00	    1.954858E-03	    1.640000E-03	    7.900000E+02	    2.099055E-03	    3.313130E-03	    1.246929E+03	    6.425775E+04	
   -6.038077E-04	    3.815259E-02	    6.423335E-02	   -1.000000E+00	    1.955365E-03	    1.640000E-03	    7.900000E+02	    2.102434E-03	    3.314070E-03	    1.245278E+03	    6.421399E+04	
    6.038077E-04	    3.815259E-02	    6.423335E-02	   -1.000000E+00	    1.955365E-03	    1.640000E-03	    7.900000E+02	    2.102434E-03	    3.314070E-03	    1.245278E+03	    6.421399E+04	
    1.863880E-03	    3.809689E-02	    6.414287E-02	   -1.000000E+00	    1.954858E-03	    1.640000E-03	    7.900000E+02	    2.099055E-03	    3.313130E-03	    1.246929E+03	    6.425775E+04	
    3.229949E-03	    3.797183E-02	    6.393813E-02	   -1.000000E+00	    1.953716E-03	    1.640000E-03	    7.900000E+02	    2.091442E-03	    3.310923E-03	    1.250634E+03	    6.435344E+04	
    4.703014E-03	    3.776052E-02	    6.359135E-02	   -1.000000E+00	    1.951785E-03	    1.640000E-03	    7.900000E+02	    2.078568E-03	    3.307125E-03	    1.256937E+03	    6.451448E+04	
    6.280990E-03	    3.744410E-02	    6.307133E-02	   -1.000000E+00	    1.948893E-03	    1.640000E-03	    7.900000E+02	    2.059285E-03	    3.301344E-03	    1.266489E+03	    6.475643E+04	
    7.957757E-03	    3.700211E-02	    6.234413E-02	   -1.000000E+00	    1.944853E-03	    1.640000E-03	    7.900000E+02	    2.032353E-03	    3.293119E-03	    1.280074E+03	    6.509712E+04	
    9.722200E-03	    3.641337E-02	    6.137435E-02	   -1.000000E+00	    1.939474E-03	    1.640000E-03	    7.900000E+02	    1.996496E-03	    3.281907E-03	    1.298629E+03	    6.555663E+04	
    1.155734E-02	    3.565717E-02	    6.012715E-02	   -1.000000E+00	    1.932571E-03	    1.640000E-03	    7.900000E+02	    1.950472E-03	    3.267086E-03	    1.323268E+03	    6.615707E+04	
    1.343979E-02	    3.471499E-02	    5.857093E-02	   -1.000000E+00	    1.923979E-03	    1.640000E-03	    7.900000E+02	    1.893192E-03	    3.247948E-03	    1.355319E+03	    6.692203E+04	
    1.533964E-02	    3.357253E-02	    5.668076E-02	   -1.000000E+00	    1.913576E-03	    1.640000E-03	    7.900000E+02	    1.823842E-03	    3.223714E-03	    1.396357E+03	    6.787570E+04	
    1.722120E-02	    3.222205E-02	    5.444223E-02	   -1.000000E+00	    1.901306E-03	    1.640000E-03	    7.900000E+02	    1.742040E-03	    3.193549E-03	    1.448246E+03	    6.904143E+04	
    1.904456E-02	    3.066460E-02	    5.185529E-02	   -1.000000E+00	    1.887196E-03	    1.640000E-03	    7.900000E+02	    1.647973E-03	    3.156600E-03	    1.513201E+03	    7.043964E+04	
    2.076811E-02	    2.891176E-02	    4.893726E-02	   -1.000000E+00	    1.871376E-03	    1.640000E-03	    7.900000E+02	    1.542505E-03	    3.112042E-03	    1.593844E+03	    7.208498E+04	
    2.235184E-02	    2.698642E-02	    4.572441E-02	   -1.000000E+00	    1.854084E-03	    1.640000E-03	    7.900000E+02	    1.427229E-03	    3.059143E-03	    1.693297E+03	    7.398270E+04	
    2.376093E-02	    2.492232E-02	    4.227142E-02	   -1.000000E+00	    1.835663E-03	    1.640000E-03	    7.900000E+02	    1.304420E-03	    2.997326E-03	    1.815280E+03	    7.612429E+04	
    2.496915E-02	    2.276214E-02	    3.864829E-02	   -1.000000E+00	    1.816534E-03	    1.640000E-03	    7.900000E+02	    1.176896E-03	    2.926221E-03	    1.964247E+03	    7.848271E+04	
    2.596131E-02	    2.055434E-02	    3.493523E-02	   -1.000000E+00	    1.797169E-03	    1.640000E-03	    7.900000E+02	    1.047794E-03	    2.845689E-03	    2.145549E+03	    8.100819E+04	
    2.673440E-02	    1.834923E-02	    3.121619E-02	   -1.000000E+00	    1.778045E-03	    1.640000E-03	    7.900000E+02	    9.202986E-04	    2.755808E-03	    2.365633E+03	    8.362582E+04	
    2.729719E-02	    1.619495E-02	    2.757215E-02	   -1.000000E+00	    1.759605E-03	    1.640000E-03	    7.900000E+02	    7.973653E-04	    2.656825E-03	    2.632284E+03	    8.623719E+04	
    2.766839E-02	    1.413398E-02	    2.407544E-02	   -1.000000E+00	    1.742225E-03	    1.640000E-03	    7.900000E+02	    6.815029E-04	    2.549097E-03	    2.954920E+03	    8.872804E+04	
    2.787395E-02	    1.220068E-02	    2.078570E-02	   -1.000000E+00	    1.726195E-03	    1.640000E-03	    7.900000E+02	    5.746322E-04	    2.433064E-03	    3.344958E+03	    9.098293E+04	
    2.794387E-02	    1.042002E-02	    1.774757E-02	   -1.000000E+00	    1.711706E-03	    1.640000E-03	    7.900000E+02	    4.780367E-04	    2.309275E-03	    3.816292E+03	    9.290466E+04	
    2.790919E-02	    8.807526E-03	    1.499025E-02	   -1.000000E+00	    1.698858E-03	    1.640000E-03	    7.900000E+02	    3.923878E-04	    2.178455E-03	    4.385915E+03	    9.443200E+04	
    2.779948E-02	    7.370029E-03	    1.252826E-02	   -1.000000E+00	    1.687673E-03	    1.640000E-03	    7.900000E+02	    3.178173E-04	    2.041561E-03	    5.074718E+03	    9.554820E+04	
    2.764112E-02	    6.107057E-03	    1.036342E-02	   -1.000000E+00	    1.678102E-03	    1.640000E-03	    7.900000E+02	    2.540153E-04	    1.899797E-03	    5.908460E+03	    9.627713E+04	
    2.745616E-02	    5.012406E-03	    8.487237E-03	   -1.000000E+00	    1.670051E-03	    1.640000E-03	    7.900000E+02	    2.003376E-04	    1.754587E-03	    6.918940E+03	    9.667056E+04	
    2.726202E-02	    4.075731E-03	    6.883476E-03	   -1.000000E+00	    1.663387E-03	    1.640000E-03	    7.900000E+02	    1.559110E-04	    1.607546E-03	    8.145425E+03	    9.679349E+04	
    2.707157E-02	    3.283966E-03	    5.530496E-03	   -1.000000E+00	    1.657959E-03	    1.640000E-03	    7.900000E+02	    1.197284E-04	    1.460442E-03	    9.636387E+03	    9.671286E+04	
    2.689357E-02	    2.622516E-03	    4.403350E-03	   -1.000000E+00	    1.653609E-03	    1.640000E-03	    7.900000E+02	    9.072668E-05	    1.315152E-03	    1.145165E+04	    9.649050E+04	
    2.673332E-02	    2.076203E-03	    3.475527E-03	   -1.000000E+00	    1.650177E-03	    1.640000E-03	    7.900000E+02	    6.784745E-05	    1.173587E-03	    1.366498E+04	    9.617682E+04	
    2.659339E-02	    1.629980E-03	    2.720328E-03	   -1.000000E+00	    1.647512E-03	    1.640000E-03	    7.900000E+02	    5.008147E-05	    1.037564E-03	    1.636684E+04	    9.580014E+04	
    2.647430E-02	    1.269449E-03	    2.111884E-03	   -1.000000E+00	    1.645475E-03	    1.640000E-03	    7.900000E+02	    3.649870E-05	    9.086138E-04	    1.966659E+04	    9.534349E+04	
    2.637516E-02	    9.812223E-04	    1.625858E-03	   -1.000000E+00	    1.643940E-03	    1.640000E-03	    7.900000E+02	    2.626746E-05	    7.877361E-04	    2.369135E+04	    9.469608E+04	
    2.629421E-02	    7.531478E-04	    1.239884E-03	   -1.000000E+00	    1.642800E-03	    1.640000E-03	    7.900000E+02	    1.866482E-05	    6.751268E-04	    2.857516E+04	    9.355987E+04	
    2.622921E-02	    5.744362E-04	    9.338320E-04	   -1.000000E+00	    1.641962E-03	    1.640000E-03	    7.900000E+02	    1.308029E-05	    5.699861E-04	    3.442501E+04	    9.129091E+04	