Title="Fields"
Variables="X""Y""Velocity""Phi""Effective Viscosity""Dynamic Viscosity""Density"
Zone I=52 J=52 F=POINT
   -1.148507E-02	    5.390816E-05	    0.000000E+00	    0.000000E+00	    1.000000E-03	    1.000000E-03	    1.000000E+03	
   -1.148024E-02	    6.788628E-05	    0.000000E+00	    0.000000E+00	    1.000000E-03	    1.000000E-03	    1.000000E+03	
   -1.146648E-02	    1.073540E-04	    0.000000E+00	    0.000000E+00	    1.000000E-03	    1.000000E-03	    1.000000E+03	
   -1.144490E-02	    1.684256E-04	    0.000000E+00	    0.000000E+00	    1.000000E-03	    1.000000E-03	    1.000000E+03	
   -1.141153E-02	    2.608873E-04	    0.000000E+00	    0.000000E+00	    1.000000E-03	    1.000000E-03	    1.000000E+03	
   -1.136077E-02	    3.971985E-04	    0.000000E+00	    0.000000E+00	    1.000000E-03	    1.000000E-03	    1.000000E+03	
   -1.128498E-02	    5.920127E-04	    0.000000E+00	    0.000000E+00	    1.000000E-03	    1.000000E-03	    1.000000E+03	
   -1.117398E-02	    8.608300E-04	    0.000000E+00	    0.000000E+00	    1.000000E-03	    1.000000E-03	    1.000000E+03	
   -1.101481E-02	    1.217624E-03	    0.000000E+00	    0.000000E+00	    1.000000E-03	    1.000000E-03	    1.000000E+03	
   -1.079186E-02	    1.671569E-03	    0.000000E+00	    0.000000E+00	    1.000000E-03	    1.000000E-03	    1.000000E+03	
   -1.048802E-02	    2.223435E-03	    0.000000E+00	    0.000000E+00	    1.000000E-03	    1.000000E-03	    1.000000E+03	
   -1.008704E-02	    2.862657E-03	    0.000000E+00	    0.000000E+00	    1.000000E-03	    1.000000E-03	    1.000000E+03	
   -9.577081E-03	    3.566373E-03	    0.000000E+00	    0.000000E+00	    1.000000E-03	    1.000000E-03	    1.000000E+03	
   -8.954820E-03	    4.301411E-03	    0.000000E+00	    0.000000E+00	    1.000000E-03	    1.000000E-03	    1.000000E+03	
   -8.228304E-03	    5.029268E-03	    0.000000E+00	    0.000000E+00	    1.000000E-03	    1.000000E-03	    1.000000E+03	
   -7.417308E-03	    5.712811E-03	    0.000000E+00	    0.000000E+00	    1.000000E-03	    1.000000E-03	    1.000000E+03	
   -6.550587E-03	    6.322511E-03	    0.000000E+00	    0.000000E+00	    1.000000E-03	    1.000000E-03	    1.000000E+03	
   -5.660961E-03	    6.840237E-03	    0.000000E+00	    0.000000E+00	    1.000000E-03	    1.000000E-03	    1.000000E+03	
   -4.780027E-03	    7.259829E-03	    0.000000E+00	    0.000000E+00	    1.000000E-03	    1.000000E-03	    1.000000E+03	
   -3.934129E-03	    7.585048E-03	    0.000000E+00	    0.000000E+00	    1.000000E-03	    1.000000E-03	    1.000000E+03	
   -3.142335E-03	    7.826227E-03	    0.000000E+00	    0.000000E+00	    1.000000E-03	    1.000000E-03	    1.000000E+03	
   -2.416276E-03	    7.996921E-03	    0.000000E+00	    0.000000E+00	    1.000000E-03	    1.000000E-03	    1.000000E+03	
   -1.761187E-03	    8.111285E-03	    0.000000E+00	    0.000000E+00	    1.000000E-03	    1.000000E-03	    1.000000E+03	
   -1.177460E-03	    8.182419E-03	    0.000000E+00	    0.000000E+00	    1.000000E-03	    1.000000E-03	    1.000000E+03	
   -6.622098E-04	    8.221548E-03	    0.000000E+00	    0.000000E+00	    1.000000E-03	    1.000000E-03	    1.000000E+03	
   -2.105877E-04	    8.237783E-03	    0.000000E+00	    0.000000E+00	    1.000000E-03	    1.000000E-03	    1.000000E+03	
    2.105877E-04	    8.237783E-03	    0.000000E+00	    0.000000E+00	    1.000000E-03	    1.000000E-03	    1.000000E+03	
    6.622098E-04	    8.221548E-03	    0.000000E+00	    0.000000E+00	    1.000000E-03	    1.000000E-03	    1.000000E+03	
    1.177460E-03	    8.182419E-03	    0.000000E+00	    0.000000E+00	    1.000000E-03	    1.000000E-03	    1.000000E+03	
    1.761187E-03	    8.111285E-03	    0.000000E+00	    0.000000E+00	    1.000000E-03	    1.000000E-03	    1.000000E+03	
    2.416276E-03	    7.996921E-03	    0.000000E+00	    0.000000E+00	    1.000000E-03	    1.000000E-03	    1.000000E+03	
    3.142335E-03	    7.826227E-03	    0.000000E+00	    0.000000E+00	    1.000000E-03	    1.000000E-03	    1.000000E+03	
    3.934129E-03	    7.585048E-03	    0.000000E+00	    0.000000E+00	    1.000000E-03	    1.000000E-03	    1.000000E+03	
    4.780027E-03	    7.259829E-03	    0.000000E+00	    0.000000E+00	    1.000000E-03	    1.000000E-03	    1.000000E+03	
    5.660961E-03	    6.840237E-03	    0.000000E+00	    0.000000E+00	    1.000000E-03	    1.000000E-03	    1.000000E+03	
    6.550587E-03	    6.322511E-03	    0.000000E+00	    0.000000E+00	    1.000000E-03	    1.000000E-03	    1.000000E+03	
    7.417308E-03	    5.712811E-03	    0.000000E+00	    0.000000E+00	    1.000000E-03	    1.000000E-03	    1.000000E+03	
    8.228304E-03	    5.029268E-03	    0.000000E+00	    0.000000E+00	    1.000000E-03	    1.000000E-03	    1.000000E+03	
    8.954820E-03	    4.301411E-03	    0.000000E+00	    0.000000E+00	    1.000000E-03	    1.000000E-03	    1.000000E+03	
    9.577081E-03	    3.566373E-03	    0.000000E+00	    0.000000E+00	    1.000000E-03	    1.000000E-03	    1.000000E+03	
    1.008704E-02	    2.862657E-03	    0.000000E+00	    0.000000E+00	    1.000000E-03	    1.000000E-03	    1.000000E+03	
    1.048802E-02	    2.223435E-03	    0.000000E+00	    0.000000E+00	    1.000000E-03	    1.000000E-03	    1.000000E+03	
    1.079186E-02	    1.671569E-03	    0.000000E+00	    0.000000E+00	    1.000000E-03	    1.000000E-03	    1.000000E+03	
    1.101481E-02	    1.217624E-03	    0.000000E+00	    0.000000E+00	    1.000000E-03	    1.000000E-03	    1.000000E+03	
    1.117398E-02	    8.608300E-04	    0.000000E+00	    0.000000E+00	    1.000000E-03	    1.000000E-03	    1.000000E+03	
    1.128498E-02	    5.920127E-04	    0.000000E+00	    0.000000E+00	    1.000000E-03	    1.000000E-03	    1.000000E+03	
    1.136077E-02	    3.971985E-04	    0.000000E+00	    0.000000E+00	    1.000000E-03	    1.000000E-03	    1.000000E+03	
    1.141153E-02	    2.608873E-04	    0.000000E+00	    0.000000E+00	    1.000000E-03	    1.000000E-03	    1.000000E+03	
    1.144490E-02	    1.684256E-04	    0.000000E+00	    0.000000E+00	    1.000000E-03	    1.000000E-03	    1.000000E+03	
    1.146648E-02	    1.073540E-04	    0.000000E+00	    0.000000E+00	    1.000000E-03	    1.000000E-03	    1.000000E+03	
    1.148024E-02	    6.788628E-05	    0.000000E+00	    0.000000E+00	    1.000000E-03	    1.000000E-03	    1.000000E+03	
    1.148507E-02	    5.390816E-05	    0.000000E+00	    0.000000E+00	    1.000000E-03	    1.000000E-03	    1.000000E+03	
   -1.148478E-02	    5.380733E-05	    0.000000E+00	    0.000000E+00	    1.000000E-03	    1.000000E-03	    1.000000E+03	
   -1.147987E-02	    6.775887E-05	    2.080072E-05	   -1.000000E+00	    1.000000E-03	    1.600000E-03	    8.010000E+02	
   -1.146591E-02	    1.071505E-04	    6.634872E-05	   -1.000000E+00	    1.000000E-03	    1.600000E-03	    8.010000E+02	
   -1.144400E-02	    1.681016E-04	    1.247006E-04	   -1.000000E+00	    1.000000E-03	    1.600000E-03	    8.010000E+02	
   -1.141013E-02	    2.603742E-04	    2.057039E-04	   -1.000000E+00	    1.000000E-03	    1.600000E-03	    8.010000E+02	
   -1.135866E-02	    3.963920E-04	    3.207522E-04	   -1.000000E+00	    1.000000E-03	    1.600000E-03	    8.010000E+02	
   -1.128186E-02	    5.907568E-04	    4.826582E-04	   -1.000000E+00	    1.000000E-03	    1.600000E-03	    8.010000E+02	
   -1.116949E-02	    8.588959E-04	    7.047211E-04	   -1.000000E+00	    1.000000E-03	    1.600000E-03	    8.010000E+02	
   -1.100854E-02	    1.214685E-03	    9.988658E-04	   -1.000000E+00	    1.000000E-03	    1.600000E-03	    8.010000E+02	
   -1.078343E-02	    1.667182E-03	    1.372969E-03	   -1.000000E+00	    1.000000E-03	    1.600000E-03	    8.010000E+02	
   -1.047713E-02	    2.217027E-03	    1.827857E-03	   -1.000000E+00	    1.000000E-03	    1.600000E-03	    8.010000E+02	
   -1.007355E-02	    2.853554E-03	    2.354874E-03	   -1.000000E+00	    1.000000E-03	    1.600000E-03	    8.010000E+02	
   -9.561133E-03	    3.553864E-03	    2.935090E-03	   -1.000000E+00	    1.000000E-03	    1.600000E-03	    8.010000E+02	
   -8.936840E-03	    4.284854E-03	    3.540997E-03	   -1.000000E+00	    1.000000E-03	    1.600000E-03	    8.010000E+02	
   -8.208994E-03	    5.008208E-03	    4.140701E-03	   -1.000000E+00	    1.000000E-03	    1.600000E-03	    8.010000E+02	
   -7.397542E-03	    5.687075E-03	    4.703511E-03	   -1.000000E+00	    1.000000E-03	    1.600000E-03	    8.010000E+02	
   -6.531273E-03	    6.292238E-03	    5.205106E-03	   -1.000000E+00	    1.000000E-03	    1.600000E-03	    8.010000E+02	
   -5.642908E-03	    6.805842E-03	    5.630643E-03	   -1.000000E+00	    1.000000E-03	    1.600000E-03	    8.010000E+02	
   -4.763851E-03	    7.221912E-03	    5.975186E-03	   -1.000000E+00	    1.000000E-03	    1.600000E-03	    8.010000E+02	
   -3.920221E-03	    7.544288E-03	    6.241966E-03	   -1.000000E+00	    1.000000E-03	    1.600000E-03	    8.010000E+02	
   -3.130874E-03	    7.783297E-03	    6.439593E-03	   -1.000000E+00	    1.000000E-03	    1.600000E-03	    8.010000E+02	
   -2.407272E-03	    7.952422E-03	    6.579290E-03	   -1.000000E+00	    1.000000E-03	    1.600000E-03	    8.010000E+02	
   -1.754531E-03	    8.065719E-03	    6.672734E-03	   -1.000000E+00	    1.000000E-03	    1.600000E-03	    8.010000E+02	
   -1.172971E-03	    8.136184E-03	    6.730711E-03	   -1.000000E+00	    1.000000E-03	    1.600000E-03	    8.010000E+02	
   -6.596731E-04	    8.174943E-03	    6.762445E-03	   -1.000000E+00	    1.000000E-03	    1.600000E-03	    8.010000E+02	
   -2.097795E-04	    8.191024E-03	    6.775409E-03	   -1.000000E+00	    1.000000E-03	    1.600000E-03	    8.010000E+02	
    2.097795E-04	    8.191024E-03	    6.775409E-03	   -1.000000E+00	    1.000000E-03	    1.600000E-03	    8.010000E+02	
    6.596731E-04	    8.174943E-03	    6.762445E-03	   -1.000000E+00	    1.000000E-03	    1.600000E-03	    8.010000E+02	
    1.172971E-03	    8.136184E-03	    6.730711E-03	   -1.000000E+00	    1.000000E-03	    1.600000E-03	    8.010000E+02	
    1.754531E-03	    8.065719E-03	    6.672734E-03	   -1.000000E+00	    1.000000E-03	    1.600000E-03	    8.010000E+02	
    2.407272E-03	    7.952422E-03	    6.579290E-03	   -1.000000E+00	    1.000000E-03	    1.600000E-03	    8.010000E+02	
    3.130874E-03	    7.783297E-03	    6.439593E-03	   -1.000000E+00	    1.000000E-03	    1.600000E-03	    8.010000E+02	
    3.920221E-03	    7.544288E-03	    6.241966E-03	   -1.000000E+00	    1.000000E-03	    1.600000E-03	    8.010000E+02	
    4.763851E-03	    7.221912E-03	    5.975186E-03	   -1.000000E+00	    1.000000E-03	    1.600000E-03	    8.010000E+02	
    5.642908E-03	    6.805842E-03	    5.630643E-03	   -1.000000E+00	    1.000000E-03	    1.600000E-03	    8.010000E+02	
    6.531273E-03	    6.292238E-03	    5.205106E-03	   -1.000000E+00	    1.000000E-03	    1.600000E-03	    8.010000E+02	
    7.397542E-03	    5.687075E-03	    4.703511E-03	   -1.000000E+00	    1.000000E-03	    1.600000E-03	    8.010000E+02	
    8.208994E-03	    5.008208E-03	    4.140701E-03	   -1.000000E+00	    1.000000E-03	    1.600000E-03	    8.010000E+02	
    8.936840E-03	    4.284854E-03	    3.540997E-03	   -1.000000E+00	    1.000000E-03	    1.600000E-03	    8.010000E+02	
    9.561133E-03	    3.553864E-03	    2.935090E-03	   -1.000000E+00	    1.000000E-03	    1.600000E-03	    8.010000E+02	
    1.007355E-02	    2.853554E-03	    2.354874E-03	   -1.000000E+00	    1.000000E-03	    1.600000E-03	    8.010000E+02	
    1.047713E-02	    2.217027E-03	    1.827857E-03	   -1.000000E+00	    1.000000E-03	    1.600000E-03	    8.010000E+02	
    1.078343E-02	    1.667182E-03	    1.372969E-03	   -1.000000E+00	    1.000000E-03	    1.600000E-03	    8.010000E+02	
    1.100854E-02	    1.214685E-03	    9.988658E-04	   -1.000000E+00	    1.000000E-03	    1.600000E-03	    8.010000E+02	
    1.116949E-02	    8.588959E-04	    7.047211E-04	   -1.000000E+00	    1.000000E-03	    1.600000E-03	    8.010000E+02	
    1.128186E-02	    5.907568E-04	    4.826582E-04	   -1.000000E+00	    1.000000E-03	    1.600000E-03	    8.010000E+02	
    1.135866E-02	    3.963920E-04	    3.207522E-04	   -1.000000E+00	    1.000000E-03	    1.600000E-03	    8.010000E+02	
    1.141013E-02	    2.603742E-04	    2.057039E-04	   -1.000000E+00	    1.000000E-03	    1.600000E-03	    8.010000E+02	
    1.144400E-02	    1.681016E-04	    1.247006E-04	   -1.000000E+00	    1.000000E-03	    1.600000E-03	    8.010000E+02	
    1.146591E-02	    1.071505E-04	    6.634872E-05	   -1.000000E+00	    1.000000E-03	    1.600000E-03	    8.010000E+02	
    1.147987E-02	    6.775887E-05	    2.080072E-05	   -1.000000E+00	    1.000000E-03	    1.600000E-03	    8.010000E+02	
    1.148478E-02	    5.380733E-05	    0.000000E+00	    0.000000E+00	    1.000000E-03	    1.000000E-03	    1.000000E+03	
   -1.148411E-02	    5.356804E-05	    0.000000E+00	    0.000000E+00	    1.000000E-03	    1.000000E-03	    1.000000E+03	
   -1.147903E-02	    6.745652E-05	    6.892209E-05	   -1.000000E+00	    1.000000E-03	    1.600000E-03	    8.010000E+02	
   -1.146458E-02	    1.066678E-04	    2.198539E-04	   -1.000000E+00	    1.000000E-03	    1.600000E-03	    8.010000E+02	
   -1.144192E-02	    1.673333E-04	    4.131856E-04	   -1.000000E+00	    1.000000E-03	    1.600000E-03	    8.010000E+02	
   -1.140692E-02	    2.591583E-04	    6.815080E-04	   -1.000000E+00	    1.000000E-03	    1.600000E-03	    8.010000E+02	
   -1.135380E-02	    3.944831E-04	    1.062486E-03	   -1.000000E+00	    1.000000E-03	    1.600000E-03	    8.010000E+02	
   -1.127466E-02	    5.877884E-04	    1.598394E-03	   -1.000000E+00	    1.000000E-03	    1.600000E-03	    8.010000E+02	
   -1.115913E-02	    8.543326E-04	    2.332974E-03	   -1.000000E+00	    1.000000E-03	    1.600000E-03	    8.010000E+02	
   -1.099410E-02	    1.207768E-03	    3.305204E-03	   -1.000000E+00	    1.000000E-03	    1.600000E-03	    8.010000E+02	
   -1.076403E-02	    1.656878E-03	    4.540415E-03	   -1.000000E+00	    1.000000E-03	    1.600000E-03	    8.010000E+02	
   -1.045208E-02	    2.202018E-03	    6.040403E-03	   -1.000000E+00	    1.000000E-03	    1.600000E-03	    8.010000E+02	
   -1.004257E-02	    2.832291E-03	    7.775552E-03	   -1.000000E+00	    1.000000E-03	    1.600000E-03	    8.010000E+02	
   -9.524539E-03	    3.524723E-03	    9.682529E-03	   -1.000000E+00	    1.000000E-03	    1.600000E-03	    8.010000E+02	
   -8.895633E-03	    4.246375E-03	    1.167024E-02	   -1.000000E+00	    1.000000E-03	    1.600000E-03	    8.010000E+02	
   -8.164787E-03	    4.959373E-03	    1.363386E-02	   -1.000000E+00	    1.000000E-03	    1.600000E-03	    8.010000E+02	
   -7.352338E-03	    5.627513E-03	    1.547331E-02	   -1.000000E+00	    1.000000E-03	    1.600000E-03	    8.010000E+02	
   -6.487145E-03	    6.222292E-03	    1.710992E-02	   -1.000000E+00	    1.000000E-03	    1.600000E-03	    8.010000E+02	
   -5.601692E-03	    6.726477E-03	    1.849633E-02	   -1.000000E+00	    1.000000E-03	    1.600000E-03	    8.010000E+02	
   -4.726945E-03	    7.134509E-03	    1.961749E-02	   -1.000000E+00	    1.000000E-03	    1.600000E-03	    8.010000E+02	
   -3.888506E-03	    7.450407E-03	    2.048474E-02	   -1.000000E+00	    1.000000E-03	    1.600000E-03	    8.010000E+02	
   -3.104750E-03	    7.684472E-03	    2.112671E-02	   -1.000000E+00	    1.000000E-03	    1.600000E-03	    8.010000E+02	
   -2.386753E-03	    7.850027E-03	    2.158025E-02	   -1.000000E+00	    1.000000E-03	    1.600000E-03	    8.010000E+02	
   -1.739364E-03	    7.960899E-03	    2.188350E-02	   -1.000000E+00	    1.000000E-03	    1.600000E-03	    8.010000E+02	
   -1.162744E-03	    8.029842E-03	    2.207159E-02	   -1.000000E+00	    1.000000E-03	    1.600000E-03	    8.010000E+02	
   -6.538941E-04	    8.067759E-03	    2.217452E-02	   -1.000000E+00	    1.000000E-03	    1.600000E-03	    8.010000E+02	
   -2.079381E-04	    8.083489E-03	    2.221656E-02	   -1.000000E+00	    1.000000E-03	    1.600000E-03	    8.010000E+02	
    2.079381E-04	    8.083489E-03	    2.221656E-02	   -1.000000E+00	    1.000000E-03	    1.600000E-03	    8.010000E+02	
    6.538941E-04	    8.067759E-03	    2.217452E-02	   -1.000000E+00	    1.000000E-03	    1.600000E-03	    8.010000E+02	
    1.162744E-03	    8.029842E-03	    2.207159E-02	   -1.000000E+00	    1.000000E-03	    1.600000E-03	    8.010000E+02	
    1.739364E-03	    7.960899E-03	    2.188350E-02	   -1.000000E+00	    1.000000E-03	    1.600000E-03	    8.010000E+02	
    2.386753E-03	    7.850027E-03	    2.158025E-02	   -1.000000E+00	    1.000000E-03	    1.600000E-03	    8.010000E+02	
    3.104750E-03	    7.684472E-03	    2.112671E-02	   -1.000000E+00	    1.000000E-03	    1.600000E-03	    8.010000E+02	
    3.888506E-03	    7.450407E-03	    2.048474E-02	   -1.000000E+00	    1.000000E-03	    1.600000E-03	    8.010000E+02	
    4.726945E-03	    7.134509E-03	    1.961749E-02	   -1.000000E+00	    1.000000E-03	    1.600000E-03	    8.010000E+02	
    5.601692E-03	    6.726477E-03	    1.849633E-02	   -1.000000E+00	    1.000000E-03	    1.600000E-03	    8.010000E+02	
    6.487145E-03	    6.222292E-03	    1.710992E-02	   -1.000000E+00	    1.000000E-03	    1.600000E-03	    8.010000E+02	
    7.352338E-03	    5.627513E-03	    1.547331E-02	   -1.000000E+00	    1.000000E-03	    1.600000E-03	    8.010000E+02	
    8.164787E-03	    4.959373E-03	    1.363386E-02	   -1.000000E+00	    1.000000E-03	    1.600000E-03	    8.010000E+02	
    8.895633E-03	    4.246375E-03	    1.167024E-02	   -1.000000E+00	    1.000000E-03	    1.600000E-03	    8.010000E+02	
    9.524539E-03	    3.524723E-03	    9.682529E-03	   -1.000000E+00	    1.000000E-03	    1.600000E-03	    8.010000E+02	
    1.004257E-02	    2.832291E-03	    7.775552E-03	   -1.000000E+00	    1.000000E-03	    1.600000E-03	    8.010000E+02	
    1.045208E-02	    2.202018E-03	    6.040403E-03	   -1.000000E+00	    1.000000E-03	    1.600000E-03	    8.010000E+02	
    1.076403E-02	    1.656878E-03	    4.540415E-03	   -1.000000E+00	    1.000000E-03	    1.600000E-03	    8.010000E+02	
    1.099410E-02	    1.207768E-03	    3.305204E-03	   -1.000000E+00	    1.000000E-03	    1.600000E-03	    8.010000E+02	
    1.115913E-02	    8.543326E-04	    2.332974E-03	   -1.000000E+00	    1.000000E-03	    1.600000E-03	    8.010000E+02	
    1.127466E-02	    5.877884E-04	    1.598394E-03	   -1.000000E+00	    1.000000E-03	    1.600000E-03	    8.010000E+02	
    1.135380E-02	    3.944831E-04	    1.062486E-03	   -1.000000E+00	    1.000000E-03	    1.600000E-03	    8.010000E+02	
    1.140692E-02	    2.591583E-04	    6.815080E-04	   -1.000000E+00	    1.000000E-03	    1.600000E-03	    8.010000E+02	
    1.144192E-02	    1.673333E-04	    4.131856E-04	   -1.000000E+00	    1.000000E-03	    1.600000E-03	    8.010000E+02	
    1.146458E-02	    1.066678E-04	    2.198539E-04	   -1.000000E+00	    1.000000E-03	    1.600000E-03	    8.010000E+02	
    1.147903E-02	    6.745652E-05	    6.892209E-05	   -1.000000E+00	    1.000000E-03	    1.600000E-03	    8.010000E+02	
    1.148411E-02	    5.356804E-05	    0.000000E+00	    0.000000E+00	    1.000000E-03	    1.000000E-03	    1.000000E+03	
   -1.148324E-02	    5.324215E-05	    0.000000E+00	    0.000000E+00	    1.000000E-03	    1.000000E-03	    1.000000E+03	
   -1.147793E-02	    6.704482E-05	    1.318982E-04	   -1.000000E+00	    1.000000E-03	    1.600000E-03	    8.010000E+02	
   -1.146285E-02	    1.060109E-04	    4.207626E-04	   -1.000000E+00	    1.000000E-03	    1.600000E-03	    8.010000E+02	
   -1.143921E-02	    1.662886E-04	    7.907158E-04	   -1.000000E+00	    1.000000E-03	    1.600000E-03	    8.010000E+02	
   -1.140274E-02	    2.575068E-04	    1.304047E-03	   -1.000000E+00	    1.000000E-03	    1.600000E-03	    8.010000E+02	
   -1.134746E-02	    3.918942E-04	    2.032651E-03	   -1.000000E+00	    1.000000E-03	    1.600000E-03	    8.010000E+02	
   -1.126529E-02	    5.837713E-04	    3.057059E-03	   -1.000000E+00	    1.000000E-03	    1.600000E-03	    8.010000E+02	
   -1.114566E-02	    8.481743E-04	    4.460294E-03	   -1.000000E+00	    1.000000E-03	    1.600000E-03	    8.010000E+02	
   -1.097535E-02	    1.198463E-03	    6.315838E-03	   -1.000000E+00	    1.000000E-03	    1.600000E-03	    8.010000E+02	
   -1.073886E-02	    1.643071E-03	    8.670566E-03	   -1.000000E+00	    1.000000E-03	    1.600000E-03	    8.010000E+02	
   -1.041962E-02	    2.181990E-03	    1.152597E-02	   -1.000000E+00	    1.000000E-03	    1.600000E-03	    8.010000E+02	
   -1.000249E-02	    2.804039E-03	    1.482345E-02	   -1.000000E+00	    1.000000E-03	    1.600000E-03	    8.010000E+02	
   -9.477283E-03	    3.486162E-03	    1.844059E-02	   -1.000000E+00	    1.000000E-03	    1.600000E-03	    8.010000E+02	
   -8.842514E-03	    4.195657E-03	    2.220320E-02	   -1.000000E+00	    1.000000E-03	    1.600000E-03	    8.010000E+02	
   -8.107903E-03	    4.895231E-03	    2.591256E-02	   -1.000000E+00	    1.000000E-03	    1.600000E-03	    8.010000E+02	
   -7.294268E-03	    5.549521E-03	    2.938042E-02	   -1.000000E+00	    1.000000E-03	    1.600000E-03	    8.010000E+02	
   -6.430540E-03	    6.130939E-03	    3.246025E-02	   -1.000000E+00	    1.000000E-03	    1.600000E-03	    8.010000E+02	
   -5.548890E-03	    6.623039E-03	    3.506509E-02	   -1.000000E+00	    1.000000E-03	    1.600000E-03	    8.010000E+02	
   -4.679713E-03	    7.020782E-03	    3.716875E-02	   -1.000000E+00	    1.000000E-03	    1.600000E-03	    8.010000E+02	
   -3.847950E-03	    7.328403E-03	    3.879428E-02	   -1.000000E+00	    1.000000E-03	    1.600000E-03	    8.010000E+02	
   -3.071361E-03	    7.556159E-03	    3.999658E-02	   -1.000000E+00	    1.000000E-03	    1.600000E-03	    8.010000E+02	
   -2.360539E-03	    7.717161E-03	    4.084546E-02	   -1.000000E+00	    1.000000E-03	    1.600000E-03	    8.010000E+02	
   -1.719994E-03	    7.824942E-03	    4.141281E-02	   -1.000000E+00	    1.000000E-03	    1.600000E-03	    8.010000E+02	
   -1.149684E-03	    7.891947E-03	    4.176460E-02	   -1.000000E+00	    1.000000E-03	    1.600000E-03	    8.010000E+02	
   -6.465153E-04	    7.928792E-03	    4.195706E-02	   -1.000000E+00	    1.000000E-03	    1.600000E-03	    8.010000E+02	
   -2.055871E-04	    7.944077E-03	    4.203563E-02	   -1.000000E+00	    1.000000E-03	    1.600000E-03	    8.010000E+02	
    2.055871E-04	    7.944077E-03	    4.203563E-02	   -1.000000E+00	    1.000000E-03	    1.600000E-03	    8.010000E+02	
    6.465153E-04	    7.928792E-03	    4.195706E-02	   -1.000000E+00	    1.000000E-03	    1.600000E-03	    8.010000E+02	
    1.149684E-03	    7.891947E-03	    4.176460E-02	   -1.000000E+00	    1.000000E-03	    1.600000E-03	    8.010000E+02	
    1.719994E-03	    7.824942E-03	    4.141281E-02	   -1.000000E+00	    1.000000E-03	    1.600000E-03	    8.010000E+02	
    2.360539E-03	    7.717161E-03	    4.084546E-02	   -1.000000E+00	    1.000000E-03	    1.600000E-03	    8.010000E+02	
    3.071361E-03	    7.556159E-03	    3.999658E-02	   -1.000000E+00	    1.000000E-03	    1.600000E-03	    8.010000E+02	
    3.847950E-03	    7.328403E-03	    3.879428E-02	   -1.000000E+00	    1.000000E-03	    1.600000E-03	    8.010000E+02	
    4.679713E-03	    7.020782E-03	    3.716875E-02	   -1.000000E+00	    1.000000E-03	    1.600000E-03	    8.010000E+02	
    5.548890E-03	    6.623039E-03	    3.506509E-02	   -1.000000E+00	    1.000000E-03	    1.600000E-03	    8.010000E+02	
    6.430540E-03	    6.130939E-03	    3.246025E-02	   -1.000000E+00	    1.000000E-03	    1.600000E-03	    8.010000E+02	
    7.294268E-03	    5.549521E-03	    2.938042E-02	   -1.000000E+00	    1.000000E-03	    1.600000E-03	    8.010000E+02	
    8.107903E-03	    4.895231E-03	    2.591256E-02	   -1.000000E+00	    1.000000E-03	    1.600000E-03	    8.010000E+02	
    8.842514E-03	    4.195657E-03	    2.220320E-02	   -1.000000E+00	    1.000000E-03	    1.600000E-03	    8.010000E+02	
    9.477283E-03	    3.486162E-03	    1.844059E-02	   -1.000000E+00	    1.000000E-03	    1.600000E-03	    8.010000E+02	
    1.000249E-02	    2.804039E-03	    1.482345E-02	   -1.000000E+00	    1.000000E-03	    1.600000E-03	    8.010000E+02	
    1.041962E-02	    2.181990E-03	    1.152597E-02	   -1.000000E+00	    1.000000E-03	    1.600000E-03	    8.010000E+02	
    1.073886E-02	    1.643071E-03	    8.670566E-03	   -1.000000E+00	    1.000000E-03	    1.600000E-03	    8.010000E+02	
    1.097535E-02	    1.198463E-03	    6.315838E-03	   -1.000000E+00	    1.000000E-03	    1.600000E-03	    8.010000E+02	
    1.114566E-02	    8.481743E-04	    4.460294E-03	   -1.000000E+00	    1.000000E-03	    1.600000E-03	    8.010000E+02	
    1.126529E-02	    5.837713E-04	    3.057059E-03	   -1.000000E+00	    1.000000E-03	    1.600000E-03	    8.010000E+02	
    1.134746E-02	    3.918942E-04	    2.032651E-03	   -1.000000E+00	    1.000000E-03	    1.600000E-03	    8.010000E+02	
    1.140274E-02	    2.575068E-04	    1.304047E-03	   -1.000000E+00	    1.000000E-03	    1.600000E-03	    8.010000E+02	
    1.143921E-02	    1.662886E-04	    7.907158E-04	   -1.000000E+00	    1.000000E-03	    1.600000E-03	    8.010000E+02	
    1.146285E-02	    1.060109E-04	    4.207626E-04	   -1.000000E+00	    1.000000E-03	    1.600000E-03	    8.010000E+02	
    1.147793E-02	    6.704482E-05	    1.318982E-04	   -1.000000E+00	    1.000000E-03	    1.600000E-03	    8.010000E+02	
    1.148324E-02	    5.324215E-05	    0.000000E+00	    0.000000E+00	    1.000000E-03	    1.000000E-03	    1.000000E+03	
   -1.148212E-02	    5.279748E-05	    0.000000E+00	    0.000000E+00	    1.000000E-03	    1.000000E-03	    1.000000E+03	
   -1.147652E-02	    6.648318E-05	    2.136577E-04	   -1.000000E+00	    1.000000E-03	    1.600000E-03	    8.010000E+02	
   -1.146062E-02	    1.051153E-04	    6.816215E-04	   -1.000000E+00	    1.000000E-03	    1.600000E-03	    8.010000E+02	
   -1.143572E-02	    1.648655E-04	    1.280830E-03	   -1.000000E+00	    1.000000E-03	    1.600000E-03	    8.010000E+02	
   -1.139735E-02	    2.552604E-04	    2.112018E-03	   -1.000000E+00	    1.000000E-03	    1.600000E-03	    8.010000E+02	
   -1.133930E-02	    3.883796E-04	    3.291268E-03	   -1.000000E+00	    1.000000E-03	    1.600000E-03	    8.010000E+02	
   -1.125323E-02	    5.783323E-04	    4.948268E-03	   -1.000000E+00	    1.000000E-03	    1.600000E-03	    8.010000E+02	
   -1.112832E-02	    8.398644E-04	    7.216116E-03	   -1.000000E+00	    1.000000E-03	    1.600000E-03	    8.010000E+02	
   -1.095124E-02	    1.185960E-03	    1.021159E-02	   -1.000000E+00	    1.000000E-03	    1.600000E-03	    8.010000E+02	
   -1.070654E-02	    1.624605E-03	    1.400739E-02	   -1.000000E+00	    1.000000E-03	    1.600000E-03	    8.010000E+02	
   -1.037803E-02	    2.155340E-03	    1.860202E-02	   -1.000000E+00	    1.000000E-03	    1.600000E-03	    8.010000E+02	
   -9.951239E-03	    2.766643E-03	    2.389680E-02	   -1.000000E+00	    1.000000E-03	    1.600000E-03	    8.010000E+02	
   -9.416984E-03	    3.435387E-03	    2.969108E-02	   -1.000000E+00	    1.000000E-03	    1.600000E-03	    8.010000E+02	
   -8.774892E-03	    4.129202E-03	    3.570310E-02	   -1.000000E+00	    1.000000E-03	    1.600000E-03	    8.010000E+02	
   -8.035653E-03	    4.811560E-03	    4.161481E-02	   -1.000000E+00	    1.000000E-03	    1.600000E-03	    8.010000E+02	
   -7.220668E-03	    5.448177E-03	    4.712796E-02	   -1.000000E+00	    1.000000E-03	    1.600000E-03	    8.010000E+02	
   -6.358933E-03	    6.012622E-03	    5.201316E-02	   -1.000000E+00	    1.000000E-03	    1.600000E-03	    8.010000E+02	
   -5.482201E-03	    6.489425E-03	    5.613678E-02	   -1.000000E+00	    1.000000E-03	    1.600000E-03	    8.010000E+02	
   -4.620135E-03	    6.874182E-03	    5.946154E-02	   -1.000000E+00	    1.000000E-03	    1.600000E-03	    8.010000E+02	
   -3.796843E-03	    7.171379E-03	    6.202729E-02	   -1.000000E+00	    1.000000E-03	    1.600000E-03	    8.010000E+02	
   -3.029318E-03	    7.391204E-03	    6.392309E-02	   -1.000000E+00	    1.000000E-03	    1.600000E-03	    8.010000E+02	
   -2.327547E-03	    7.546490E-03	    6.526063E-02	   -1.000000E+00	    1.000000E-03	    1.600000E-03	    8.010000E+02	
   -1.695624E-03	    7.650394E-03	    6.615409E-02	   -1.000000E+00	    1.000000E-03	    1.600000E-03	    8.010000E+02	
   -1.133257E-03	    7.714968E-03	    6.670789E-02	   -1.000000E+00	    1.000000E-03	    1.600000E-03	    8.010000E+02	
   -6.372352E-04	    7.750470E-03	    6.701077E-02	   -1.000000E+00	    1.000000E-03	    1.600000E-03	    8.010000E+02	
   -2.026305E-04	    7.765196E-03	    6.713438E-02	   -1.000000E+00	    1.000000E-03	    1.600000E-03	    8.010000E+02	
    2.026305E-04	    7.765196E-03	    6.713438E-02	   -1.000000E+00	    1.000000E-03	    1.600000E-03	    8.010000E+02	
    6.372352E-04	    7.750470E-03	    6.701077E-02	   -1.000000E+00	    1.000000E-03	    1.600000E-03	    8.010000E+02	
    1.133257E-03	    7.714968E-03	    6.670789E-02	   -1.000000E+00	    1.000000E-03	    1.600000E-03	    8.010000E+02	
    1.695624E-03	    7.650394E-03	    6.615409E-02	   -1.000000E+00	    1.000000E-03	    1.600000E-03	    8.010000E+02	
    2.327547E-03	    7.546490E-03	    6.526063E-02	   -1.000000E+00	    1.000000E-03	    1.600000E-03	    8.010000E+02	
    3.029318E-03	    7.391204E-03	    6.392309E-02	   -1.000000E+00	    1.000000E-03	    1.600000E-03	    8.010000E+02	
    3.796843E-03	    7.171379E-03	    6.202729E-02	   -1.000000E+00	    1.000000E-03	    1.600000E-03	    8.010000E+02	
    4.620135E-03	    6.874182E-03	    5.946154E-02	   -1.000000E+00	    1.000000E-03	    1.600000E-03	    8.010000E+02	
    5.482201E-03	    6.489425E-03	    5.613678E-02	   -1.000000E+00	    1.000000E-03	    1.600000E-03	    8.010000E+02	
    6.358933E-03	    6.012622E-03	    5.201316E-02	   -1.000000E+00	    1.000000E-03	    1.600000E-03	    8.010000E+02	
    7.220668E-03	    5.448177E-03	    4.712796E-02	   -1.000000E+00	    1.000000E-03	    1.600000E-03	    8.010000E+02	
    8.035653E-03	    4.811560E-03	    4.161481E-02	   -1.000000E+00	    1.000000E-03	    1.600000E-03	    8.010000E+02	
    8.774892E-03	    4.129202E-03	    3.570310E-02	   -1.000000E+00	    1.000000E-03	    1.600000E-03	    8.010000E+02	
    9.416984E-03	    3.435387E-03	    2.969108E-02	   -1.000000E+00	    1.000000E-03	    1.600000E-03	    8.010000E+02	
    9.951239E-03	    2.766643E-03	    2.389680E-02	   -1.000000E+00	    1.000000E-03	    1.600000E-03	    8.010000E+02	