Title="Fields"
Variables="X""Y""Velocity""Phi""Effective Viscosity""Dynamic Viscosity""Density""Eddy Viscosity""K""Epsilon""S"
Zone I=82 J=82 F=POINT
   -1.257914E-02	    6.180950E-05	    0.000000E+00	   -1.000000E+00	    1.200000E-02	    1.200000E-02	    8.750000E+02	    0.000000E+00	    0.000000E+00	    0.000000E+00	    0.000000E+00	
   -1.257780E-02	    7.141200E-05	    0.000000E+00	   -1.000000E+00	    1.200000E-02	    1.200000E-02	    8.750000E+02	    0.000000E+00	    0.000000E+00	    0.000000E+00	    0.000000E+00	
   -1.257445E-02	    9.526172E-05	    0.000000E+00	   -1.000000E+00	    1.200000E-02	    1.200000E-02	    8.750000E+02	    0.000000E+00	    0.000000E+00	    0.000000E+00	    0.000000E+00	
   -1.256994E-02	    1.268368E-04	    0.000000E+00	   -1.000000E+00	    1.200000E-02	    1.200000E-02	    8.750000E+02	    0.000000E+00	    0.000000E+00	    0.000000E+00	    0.000000E+00	
   -1.256388E-02	    1.683574E-04	    0.000000E+00	   -1.000000E+00	    1.200000E-02	    1.200000E-02	    8.750000E+02	    0.000000E+00	    0.000000E+00	    0.000000E+00	    0.000000E+00	
   -1.255576E-02	    2.225246E-04	    0.000000E+00	   -1.000000E+00	    1.200000E-02	    1.200000E-02	    8.750000E+02	    0.000000E+00	    0.000000E+00	    0.000000E+00	    0.000000E+00	
   -1.254492E-02	    2.925538E-04	    0.000000E+00	   -1.000000E+00	    1.200000E-02	    1.200000E-02	    8.750000E+02	    0.000000E+00	    0.000000E+00	    0.000000E+00	    0.000000E+00	
   -1.253045E-02	    3.821804E-04	    0.000000E+00	   -1.000000E+00	    1.200000E-02	    1.200000E-02	    8.750000E+02	    0.000000E+00	    0.000000E+00	    0.000000E+00	    0.000000E+00	
   -1.251120E-02	    4.956244E-04	    0.000000E+00	   -1.000000E+00	    1.200000E-02	    1.200000E-02	    8.750000E+02	    0.000000E+00	    0.000000E+00	    0.000000E+00	    0.000000E+00	
   -1.248563E-02	    6.375037E-04	    0.000000E+00	   -1.000000E+00	    1.200000E-02	    1.200000E-02	    8.750000E+02	    0.000000E+00	    0.000000E+00	    0.000000E+00	    0.000000E+00	
   -1.245175E-02	    8.126817E-04	    0.000000E+00	   -1.000000E+00	    1.200000E-02	    1.200000E-02	    8.750000E+02	    0.000000E+00	    0.000000E+00	    0.000000E+00	    0.000000E+00	
   -1.240703E-02	    1.026044E-03	    0.000000E+00	   -1.000000E+00	    1.200000E-02	    1.200000E-02	    8.750000E+02	    0.000000E+00	    0.000000E+00	    0.000000E+00	    0.000000E+00	
   -1.234825E-02	    1.282202E-03	    0.000000E+00	   -1.000000E+00	    1.200000E-02	    1.200000E-02	    8.750000E+02	    0.000000E+00	    0.000000E+00	    0.000000E+00	    0.000000E+00	
   -1.227148E-02	    1.585124E-03	    0.000000E+00	   -1.000000E+00	    1.200000E-02	    1.200000E-02	    8.750000E+02	    0.000000E+00	    0.000000E+00	    0.000000E+00	    0.000000E+00	
   -1.217201E-02	    1.937722E-03	    0.000000E+00	   -1.000000E+00	    1.200000E-02	    1.200000E-02	    8.750000E+02	    0.000000E+00	    0.000000E+00	    0.000000E+00	    0.000000E+00	
   -1.204447E-02	    2.341401E-03	    0.000000E+00	   -1.000000E+00	    1.200000E-02	    1.200000E-02	    8.750000E+02	    0.000000E+00	    0.000000E+00	    0.000000E+00	    0.000000E+00	
   -1.188293E-02	    2.795641E-03	    0.000000E+00	   -1.000000E+00	    1.200000E-02	    1.200000E-02	    8.750000E+02	    0.000000E+00	    0.000000E+00	    0.000000E+00	    0.000000E+00	
   -1.168128E-02	    3.297648E-03	    0.000000E+00	   -1.000000E+00	    1.200000E-02	    1.200000E-02	    8.750000E+02	    0.000000E+00	    0.000000E+00	    0.000000E+00	    0.000000E+00	
   -1.143366E-02	    3.842143E-03	    0.000000E+00	   -1.000000E+00	    1.200000E-02	    1.200000E-02	    8.750000E+02	    0.000000E+00	    0.000000E+00	    0.000000E+00	    0.000000E+00	
   -1.113504E-02	    4.421354E-03	    0.000000E+00	   -1.000000E+00	    1.200000E-02	    1.200000E-02	    8.750000E+02	    0.000000E+00	    0.000000E+00	    0.000000E+00	    0.000000E+00	
   -1.078182E-02	    5.025265E-03	    0.000000E+00	   -1.000000E+00	    1.200000E-02	    1.200000E-02	    8.750000E+02	    0.000000E+00	    0.000000E+00	    0.000000E+00	    0.000000E+00	
   -1.037243E-02	    5.642121E-03	    0.000000E+00	   -1.000000E+00	    1.200000E-02	    1.200000E-02	    8.750000E+02	    0.000000E+00	    0.000000E+00	    0.000000E+00	    0.000000E+00	
   -9.907713E-03	    6.259167E-03	    0.000000E+00	   -1.000000E+00	    1.200000E-02	    1.200000E-02	    8.750000E+02	    0.000000E+00	    0.000000E+00	    0.000000E+00	    0.000000E+00	
   -9.391156E-03	    6.863534E-03	    0.000000E+00	   -1.000000E+00	    1.200000E-02	    1.200000E-02	    8.750000E+02	    0.000000E+00	    0.000000E+00	    0.000000E+00	    0.000000E+00	
   -8.828743E-03	    7.443158E-03	    0.000000E+00	   -1.000000E+00	    1.200000E-02	    1.200000E-02	    8.750000E+02	    0.000000E+00	    0.000000E+00	    0.000000E+00	    0.000000E+00	
   -8.228588E-03	    7.987597E-03	    0.000000E+00	   -1.000000E+00	    1.200000E-02	    1.200000E-02	    8.750000E+02	    0.000000E+00	    0.000000E+00	    0.000000E+00	    0.000000E+00	
   -7.600314E-03	    8.488638E-03	    0.000000E+00	   -1.000000E+00	    1.200000E-02	    1.200000E-02	    8.750000E+02	    0.000000E+00	    0.000000E+00	    0.000000E+00	    0.000000E+00	
   -6.954321E-03	    8.940635E-03	    0.000000E+00	   -1.000000E+00	    1.200000E-02	    1.200000E-02	    8.750000E+02	    0.000000E+00	    0.000000E+00	    0.000000E+00	    0.000000E+00	
   -6.301050E-03	    9.340542E-03	    0.000000E+00	   -1.000000E+00	    1.200000E-02	    1.200000E-02	    8.750000E+02	    0.000000E+00	    0.000000E+00	    0.000000E+00	    0.000000E+00	
   -5.650329E-03	    9.687724E-03	    0.000000E+00	   -1.000000E+00	    1.200000E-02	    1.200000E-02	    8.750000E+02	    0.000000E+00	    0.000000E+00	    0.000000E+00	    0.000000E+00	
   -5.010885E-03	    9.983567E-03	    0.000000E+00	   -1.000000E+00	    1.200000E-02	    1.200000E-02	    8.750000E+02	    0.000000E+00	    0.000000E+00	    0.000000E+00	    0.000000E+00	
   -4.390038E-03	    1.023102E-02	    0.000000E+00	   -1.000000E+00	    1.200000E-02	    1.200000E-02	    8.750000E+02	    0.000000E+00	    0.000000E+00	    0.000000E+00	    0.000000E+00	
   -3.793571E-03	    1.043409E-02	    0.000000E+00	   -1.000000E+00	    1.200000E-02	    1.200000E-02	    8.750000E+02	    0.000000E+00	    0.000000E+00	    0.000000E+00	    0.000000E+00	
   -3.225741E-03	    1.059741E-02	    0.000000E+00	   -1.000000E+00	    1.200000E-02	    1.200000E-02	    8.750000E+02	    0.000000E+00	    0.000000E+00	    0.000000E+00	    0.000000E+00	
   -2.689398E-03	    1.072588E-02	    0.000000E+00	   -1.000000E+00	    1.200000E-02	    1.200000E-02	    8.750000E+02	    0.000000E+00	    0.000000E+00	    0.000000E+00	    0.000000E+00	
   -2.186168E-03	    1.082433E-02	    0.000000E+00	   -1.000000E+00	    1.200000E-02	    1.200000E-02	    8.750000E+02	    0.000000E+00	    0.000000E+00	    0.000000E+00	    0.000000E+00	
   -1.716659E-03	    1.089735E-02	    0.000000E+00	   -1.000000E+00	    1.200000E-02	    1.200000E-02	    8.750000E+02	    0.000000E+00	    0.000000E+00	    0.000000E+00	    0.000000E+00	
   -1.280672E-03	    1.094917E-02	    0.000000E+00	   -1.000000E+00	    1.200000E-02	    1.200000E-02	    8.750000E+02	    0.000000E+00	    0.000000E+00	    0.000000E+00	    0.000000E+00	
   -8.773961E-04	    1.098356E-02	    0.000000E+00	   -1.000000E+00	    1.200000E-02	    1.200000E-02	    8.750000E+02	    0.000000E+00	    0.000000E+00	    0.000000E+00	    0.000000E+00	
   -5.055812E-04	    1.100384E-02	    0.000000E+00	   -1.000000E+00	    1.200000E-02	    1.200000E-02	    8.750000E+02	    0.000000E+00	    0.000000E+00	    0.000000E+00	    0.000000E+00	
   -1.636789E-04	    1.101285E-02	    0.000000E+00	   -1.000000E+00	    1.200000E-02	    1.200000E-02	    8.750000E+02	    0.000000E+00	    0.000000E+00	    0.000000E+00	    0.000000E+00	
    1.636789E-04	    1.101285E-02	    0.000000E+00	   -1.000000E+00	    1.200000E-02	    1.200000E-02	    8.750000E+02	    0.000000E+00	    0.000000E+00	    0.000000E+00	    0.000000E+00	
    5.055812E-04	    1.100384E-02	    0.000000E+00	   -1.000000E+00	    1.200000E-02	    1.200000E-02	    8.750000E+02	    0.000000E+00	    0.000000E+00	    0.000000E+00	    0.000000E+00	
    8.773961E-04	    1.098356E-02	    0.000000E+00	   -1.000000E+00	    1.200000E-02	    1.200000E-02	    8.750000E+02	    0.000000E+00	    0.000000E+00	    0.000000E+00	    0.000000E+00	
    1.280672E-03	    1.094917E-02	    0.000000E+00	   -1.000000E+00	    1.200000E-02	    1.200000E-02	    8.750000E+02	    0.000000E+00	    0.000000E+00	    0.000000E+00	    0.000000E+00	
    1.716659E-03	    1.089735E-02	    0.000000E+00	   -1.000000E+00	    1.200000E-02	    1.200000E-02	    8.750000E+02	    0.000000E+00	    0.000000E+00	    0.000000E+00	    0.000000E+00	
    2.186168E-03	    1.082433E-02	    0.000000E+00	   -1.000000E+00	    1.200000E-02	    1.200000E-02	    8.750000E+02	    0.000000E+00	    0.000000E+00	    0.000000E+00	    0.000000E+00	
    2.689398E-03	    1.072588E-02	    0.000000E+00	   -1.000000E+00	    1.200000E-02	    1.200000E-02	    8.750000E+02	    0.000000E+00	    0.000000E+00	    0.000000E+00	    0.000000E+00	
    3.225741E-03	    1.059741E-02	    0.000000E+00	   -1.000000E+00	    1.200000E-02	    1.200000E-02	    8.750000E+02	    0.000000E+00	    0.000000E+00	    0.000000E+00	    0.000000E+00	
    3.793571E-03	    1.043409E-02	    0.000000E+00	   -1.000000E+00	    1.200000E-02	    1.200000E-02	    8.750000E+02	    0.000000E+00	    0.000000E+00	    0.000000E+00	    0.000000E+00	
    4.390038E-03	    1.023102E-02	    0.000000E+00	   -1.000000E+00	    1.200000E-02	    1.200000E-02	    8.750000E+02	    0.000000E+00	    0.000000E+00	    0.000000E+00	    0.000000E+00	
    5.010885E-03	    9.983567E-03	    0.000000E+00	   -1.000000E+00	    1.200000E-02	    1.200000E-02	    8.750000E+02	    0.000000E+00	    0.000000E+00	    0.000000E+00	    0.000000E+00	
    5.650329E-03	    9.687724E-03	    0.000000E+00	   -1.000000E+00	    1.200000E-02	    1.200000E-02	    8.750000E+02	    0.000000E+00	    0.000000E+00	    0.000000E+00	    0.000000E+00	
    6.301050E-03	    9.340542E-03	    0.000000E+00	   -1.000000E+00	    1.200000E-02	    1.200000E-02	    8.750000E+02	    0.000000E+00	    0.000000E+00	    0.000000E+00	    0.000000E+00	
    6.954321E-03	    8.940635E-03	    0.000000E+00	   -1.000000E+00	    1.200000E-02	    1.200000E-02	    8.750000E+02	    0.000000E+00	    0.000000E+00	    0.000000E+00	    0.000000E+00	
    7.600314E-03	    8.488638E-03	    0.000000E+00	   -1.000000E+00	    1.200000E-02	    1.200000E-02	    8.750000E+02	    0.000000E+00	    0.000000E+00	    0.000000E+00	    0.000000E+00	
    8.228588E-03	    7.987597E-03	    0.000000E+00	   -1.000000E+00	    1.200000E-02	    1.200000E-02	    8.750000E+02	    0.000000E+00	    0.000000E+00	    0.000000E+00	    0.000000E+00	
    8.828743E-03	    7.443158E-03	    0.000000E+00	   -1.000000E+00	    1.200000E-02	    1.200000E-02	    8.750000E+02	    0.000000E+00	    0.000000E+00	    0.000000E+00	    0.000000E+00	
    9.391156E-03	    6.863534E-03	    0.000000E+00	   -1.000000E+00	    1.200000E-02	    1.200000E-02	    8.750000E+02	    0.000000E+00	    0.000000E+00	    0.000000E+00	    0.000000E+00	
    9.907713E-03	    6.259167E-03	    0.000000E+00	   -1.000000E+00	    1.200000E-02	    1.200000E-02	    8.750000E+02	    0.000000E+00	    0.000000E+00	    0.000000E+00	    0.000000E+00	
    1.037243E-02	    5.642121E-03	    0.000000E+00	   -1.000000E+00	    1.200000E-02	    1.200000E-02	    8.750000E+02	    0.000000E+00	    0.000000E+00	    0.000000E+00	    0.000000E+00	
    1.078182E-02	    5.025265E-03	    0.000000E+00	   -1.000000E+00	    1.200000E-02	    1.200000E-02	    8.750000E+02	    0.000000E+00	    0.000000E+00	    0.000000E+00	    0.000000E+00	
    1.113504E-02	    4.421354E-03	    0.000000E+00	   -1.000000E+00	    1.200000E-02	    1.200000E-02	    8.750000E+02	    0.000000E+00	    0.000000E+00	    0.000000E+00	    0.000000E+00	
    1.143366E-02	    3.842143E-03	    0.000000E+00	   -1.000000E+00	    1.200000E-02	    1.200000E-02	    8.750000E+02	    0.000000E+00	    0.000000E+00	    0.000000E+00	    0.000000E+00	
    1.168128E-02	    3.297648E-03	    0.000000E+00	   -1.000000E+00	    1.200000E-02	    1.200000E-02	    8.750000E+02	    0.000000E+00	    0.000000E+00	    0.000000E+00	    0.000000E+00	
    1.188293E-02	    2.795641E-03	    0.000000E+00	   -1.000000E+00	    1.200000E-02	    1.200000E-02	    8.750000E+02	    0.000000E+00	    0.000000E+00	    0.000000E+00	    0.000000E+00	
    1.204447E-02	    2.341401E-03	    0.000000E+00	   -1.000000E+00	    1.200000E-02	    1.200000E-02	    8.750000E+02	    0.000000E+00	    0.000000E+00	    0.000000E+00	    0.000000E+00	
    1.217201E-02	    1.937722E-03	    0.000000E+00	   -1.000000E+00	    1.200000E-02	    1.200000E-02	    8.750000E+02	    0.000000E+00	    0.000000E+00	    0.000000E+00	    0.000000E+00	
    1.227148E-02	    1.585124E-03	    0.000000E+00	   -1.000000E+00	    1.200000E-02	    1.200000E-02	    8.750000E+02	    0.000000E+00	    0.000000E+00	    0.000000E+00	    0.000000E+00	
    1.234825E-02	    1.282202E-03	    0.000000E+00	   -1.000000E+00	    1.200000E-02	    1.200000E-02	    8.750000E+02	    0.000000E+00	    0.000000E+00	    0.000000E+00	    0.000000E+00	
    1.240703E-02	    1.026044E-03	    0.000000E+00	   -1.000000E+00	    1.200000E-02	    1.200000E-02	    8.750000E+02	    0.000000E+00	    0.000000E+00	    0.000000E+00	    0.000000E+00	
    1.245175E-02	    8.126817E-04	    0.000000E+00	   -1.000000E+00	    1.200000E-02	    1.200000E-02	    8.750000E+02	    0.000000E+00	    0.000000E+00	    0.000000E+00	    0.000000E+00	
    1.248563E-02	    6.375037E-04	    0.000000E+00	   -1.000000E+00	    1.200000E-02	    1.200000E-02	    8.750000E+02	    0.000000E+00	    0.000000E+00	    0.000000E+00	    0.000000E+00	
    1.251120E-02	    4.956244E-04	    0.000000E+00	   -1.000000E+00	    1.200000E-02	    1.200000E-02	    8.750000E+02	    0.000000E+00	    0.000000E+00	    0.000000E+00	    0.000000E+00	
    1.253045E-02	    3.821804E-04	    0.000000E+00	   -1.000000E+00	    1.200000E-02	    1.200000E-02	    8.750000E+02	    0.000000E+00	    0.000000E+00	    0.000000E+00	    0.000000E+00	
    1.254492E-02	    2.925538E-04	    0.000000E+00	   -1.000000E+00	    1.200000E-02	    1.200000E-02	    8.750000E+02	    0.000000E+00	    0.000000E+00	    0.000000E+00	    0.000000E+00	
    1.255576E-02	    2.225246E-04	    0.000000E+00	   -1.000000E+00	    1.200000E-02	    1.200000E-02	    8.750000E+02	    0.000000E+00	    0.000000E+00	    0.000000E+00	    0.000000E+00	
    1.256388E-02	    1.683574E-04	    0.000000E+00	   -1.000000E+00	    1.200000E-02	    1.200000E-02	    8.750000E+02	    0.000000E+00	    0.000000E+00	    0.000000E+00	    0.000000E+00	
    1.256994E-02	    1.268368E-04	    0.000000E+00	   -1.000000E+00	    1.200000E-02	    1.200000E-02	    8.750000E+02	    0.000000E+00	    0.000000E+00	    0.000000E+00	    0.000000E+00	
    1.257445E-02	    9.526172E-05	    0.000000E+00	   -1.000000E+00	    1.200000E-02	    1.200000E-02	    8.750000E+02	    0.000000E+00	    0.000000E+00	    0.000000E+00	    0.000000E+00	
    1.257780E-02	    7.141200E-05	    0.000000E+00	   -1.000000E+00	    1.200000E-02	    1.200000E-02	    8.750000E+02	    0.000000E+00	    0.000000E+00	    0.000000E+00	    0.000000E+00	
    1.257914E-02	    6.180950E-05	    0.000000E+00	   -1.000000E+00	    1.200000E-02	    1.200000E-02	    8.750000E+02	    0.000000E+00	    0.000000E+00	    0.000000E+00	    0.000000E+00	
   -1.257891E-02	    6.177741E-05	    0.000000E+00	   -1.000000E+00	    1.200000E-02	    1.200000E-02	    8.750000E+02	    0.000000E+00	    0.000000E+00	    0.000000E+00	    0.000000E+00	
   -1.257754E-02	    7.137474E-05	    1.590559E-05	   -1.000000E+00	    1.200033E-02	    1.200000E-02	    8.750000E+02	    2.173065E-06	    1.731180E-03	    1.086082E+02	    3.581073E+03	
   -1.257410E-02	    9.521134E-05	    4.873104E-05	   -1.000000E+00	    1.200035E-02	    1.200000E-02	    8.750000E+02	    2.350772E-06	    1.138482E-03	    4.342029E+01	    1.888864E+04	
   -1.256947E-02	    1.267685E-04	    8.507735E-05	   -1.000000E+00	    1.200042E-02	    1.200000E-02	    8.750000E+02	    2.807253E-06	    9.158388E-04	    2.352920E+01	    3.247496E+04	
   -1.256326E-02	    1.682647E-04	    1.272875E-04	   -1.000000E+00	    1.200055E-02	    1.200000E-02	    8.750000E+02	    3.683113E-06	    8.947824E-04	    1.711868E+01	    4.125825E+04	
   -1.255494E-02	    2.223986E-04	    1.777147E-04	   -1.000000E+00	    1.200076E-02	    1.200000E-02	    8.750000E+02	    5.087652E-06	    9.773210E-04	    1.478453E+01	    4.603464E+04	
   -1.254384E-02	    2.923822E-04	    2.386875E-04	   -1.000000E+00	    1.200107E-02	    1.200000E-02	    8.750000E+02	    7.122822E-06	    1.108307E-03	    1.358058E+01	    4.804284E+04	
   -1.252905E-02	    3.819461E-04	    3.125055E-04	   -1.000000E+00	    1.200149E-02	    1.200000E-02	    8.750000E+02	    9.923897E-06	    1.260685E-03	    1.261193E+01	    4.825483E+04	
   -1.250938E-02	    4.953042E-04	    4.014520E-04	   -1.000000E+00	    1.200205E-02	    1.200000E-02	    8.750000E+02	    1.367663E-05	    1.423789E-03	    1.167247E+01	    4.734756E+04	
   -1.248330E-02	    6.370654E-04	    5.078080E-04	   -1.000000E+00	    1.200279E-02	    1.200000E-02	    8.750000E+02	    1.861581E-05	    1.594446E-03	    1.075445E+01	    4.578607E+04	
   -1.244879E-02	    8.120812E-04	    6.338334E-04	   -1.000000E+00	    1.200375E-02	    1.200000E-02	    8.750000E+02	    2.501729E-05	    1.772038E-03	    9.884540E+00	    4.388950E+04	
   -1.240330E-02	    1.025222E-03	    7.816873E-04	   -1.000000E+00	    1.200498E-02	    1.200000E-02	    8.750000E+02	    3.318584E-05	    1.956295E-03	    9.081684E+00	    4.187182E+04	
   -1.234361E-02	    1.281078E-03	    9.532854E-04	   -1.000000E+00	    1.200652E-02	    1.200000E-02	    8.750000E+02	    4.343818E-05	    2.146465E-03	    8.352693E+00	    3.986937E+04	
   -1.226578E-02	    1.583595E-03	    1.150111E-03	   -1.000000E+00	    1.200841E-02	    1.200000E-02	    8.750000E+02	    5.608012E-05	    2.341116E-03	    7.696397E+00	    3.796261E+04	
   -1.216511E-02	    1.935652E-03	    1.373003E-03	   -1.000000E+00	    1.201071E-02	    1.200000E-02	    8.750000E+02	    7.137843E-05	    2.538212E-03	    7.107866E+00	    3.619404E+04	
   -1.203621E-02	    2.338623E-03	    1.621949E-03	   -1.000000E+00	    1.201343E-02	    1.200000E-02	    8.750000E+02	    8.952904E-05	    2.735297E-03	    6.581054E+00	    3.458183E+04	
   -1.187320E-02	    2.791954E-03	    1.895905E-03	   -1.000000E+00	    1.201659E-02	    1.200000E-02	    8.750000E+02	    1.106243E-04	    2.929706E-03	    6.110098E+00	    3.312952E+04	
   -1.167000E-02	    3.292815E-03	    2.192657E-03	   -1.000000E+00	    1.202019E-02	    1.200000E-02	    8.750000E+02	    1.346237E-04	    3.118775E-03	    5.689801E+00	    3.183247E+04	
   -1.142080E-02	    3.835900E-03	    2.508778E-03	   -1.000000E+00	    1.202420E-02	    1.200000E-02	    8.750000E+02	    1.613325E-04	    3.300013E-03	    5.315694E+00	    3.068180E+04	
   -1.112063E-02	    4.413421E-03	    2.839667E-03	   -1.000000E+00	    1.202856E-02	    1.200000E-02	    8.750000E+02	    1.903936E-04	    3.471254E-03	    4.983920E+00	    2.966674E+04	
   -1.076597E-02	    5.015363E-03	    3.179730E-03	   -1.000000E+00	    1.203319E-02	    1.200000E-02	    8.750000E+02	    2.212957E-04	    3.630756E-03	    4.691067E+00	    2.877598E+04	
   -1.035531E-02	    5.629988E-03	    3.522663E-03	   -1.000000E+00	    1.203801E-02	    1.200000E-02	    8.750000E+02	    2.534002E-04	    3.777258E-03	    4.434013E+00	    2.799833E+04	
   -9.889576E-03	    6.244580E-03	    3.861841E-03	   -1.000000E+00	    1.204290E-02	    1.200000E-02	    8.750000E+02	    2.859842E-04	    3.910001E-03	    4.209808E+00	    2.732308E+04	
   -9.372308E-03	    6.846328E-03	    4.190764E-03	   -1.000000E+00	    1.204774E-02	    1.200000E-02	    8.750000E+02	    3.182944E-04	    4.028700E-03	    4.015609E+00	    2.674012E+04	
   -8.809531E-03	    7.423240E-03	    4.503500E-03	   -1.000000E+00	    1.205244E-02	    1.200000E-02	    8.750000E+02	    3.496051E-04	    4.133493E-03	    3.848639E+00	    2.623994E+04	
   -8.209375E-03	    7.964954E-03	    4.795056E-03	   -1.000000E+00	    1.205689E-02	    1.200000E-02	    8.750000E+02	    3.792717E-04	    4.224875E-03	    3.706192E+00	    2.581363E+04	
   -7.581457E-03	    8.463336E-03	    5.061648E-03	   -1.000000E+00	    1.206102E-02	    1.200000E-02	    8.750000E+02	    4.067713E-04	    4.303615E-03	    3.585644E+00	    2.545287E+04	
   -6.936151E-03	    8.912808E-03	    5.300825E-03	   -1.000000E+00	    1.206476E-02	    1.200000E-02	    8.750000E+02	    4.317271E-04	    4.370672E-03	    3.484478E+00	    2.514994E+04	
   -6.283853E-03	    9.310383E-03	    5.511458E-03	   -1.000000E+00	    1.206809E-02	    1.200000E-02	    8.750000E+02	    4.539149E-04	    4.427124E-03	    3.400318E+00	    2.489764E+04	
   -5.634336E-03	    9.655463E-03	    5.693606E-03	   -1.000000E+00	    1.207099E-02	    1.200000E-02	    8.750000E+02	    4.732537E-04	    4.474100E-03	    3.330948E+00	    2.468938E+04	
   -4.996270E-03	    9.949461E-03	    5.848315E-03	   -1.000000E+00	    1.207347E-02	    1.200000E-02	    8.750000E+02	    4.897854E-04	    4.512726E-03	    3.274332E+00	    2.451913E+04	
   -4.376917E-03	    1.019533E-02	    5.977368E-03	   -1.000000E+00	    1.207555E-02	    1.200000E-02	    8.750000E+02	    5.036481E-04	    4.544090E-03	    3.228622E+00	    2.438144E+04	
   -3.782009E-03	    1.039707E-02	    6.083039E-03	   -1.000000E+00	    1.207726E-02	    1.200000E-02	    8.750000E+02	    5.150471E-04	    4.569208E-03	    3.192166E+00	    2.427143E+04	
   -3.215756E-03	    1.055932E-02	    6.167872E-03	   -1.000000E+00	    1.207863E-02	    1.200000E-02	    8.750000E+02	    5.242293E-04	    4.589014E-03	    3.163502E+00	    2.418476E+04	
   -2.680973E-03	    1.068692E-02	    6.234494E-03	   -1.000000E+00	    1.207972E-02	    1.200000E-02	    8.750000E+02	    5.314598E-04	    4.604345E-03	    3.141347E+00	    2.411764E+04	
   -2.179257E-03	    1.078470E-02	    6.285480E-03	   -1.000000E+00	    1.208055E-02	    1.200000E-02	    8.750000E+02	    5.370051E-04	    4.615942E-03	    3.124589E+00	    2.406674E+04	
   -1.711195E-03	    1.085722E-02	    6.323250E-03	   -1.000000E+00	    1.208117E-02	    1.200000E-02	    8.750000E+02	    5.411202E-04	    4.624454E-03	    3.112273E+00	    2.402922E+04	
   -1.276576E-03	    1.090869E-02	    6.350017E-03	   -1.000000E+00	    1.208161E-02	    1.200000E-02	    8.750000E+02	    5.440408E-04	    4.630437E-03	    3.103581E+00	    2.400263E+04	
   -8.745815E-04	    1.094284E-02	    6.367751E-03	   -1.000000E+00	    1.208190E-02	    1.200000E-02	    8.750000E+02	    5.459787E-04	    4.634370E-03	    3.097821E+00	    2.398487E+04	
   -5.039564E-04	    1.096298E-02	    6.378172E-03	   -1.000000E+00	    1.208207E-02	    1.200000E-02	    8.750000E+02	    5.471199E-04	    4.636656E-03	    3.094410E+00	    2.397420E+04	
   -1.631525E-04	    1.097193E-02	    6.382758E-03	   -1.000000E+00	    1.208214E-02	    1.200000E-02	    8.750000E+02	    5.476253E-04	    4.637639E-03	    3.092864E+00	    2.396912E+04	
    1.631525E-04	    1.097193E-02	    6.382758E-03	   -1.000000E+00	    1.208214E-02	    1.200000E-02	    8.750000E+02	    5.476253E-04	    4.637639E-03	    3.092864E+00	    2.396912E+04	
    5.039564E-04	    1.096298E-02	    6.378172E-03	   -1.000000E+00	    1.208207E-02	    1.200000E-02	    8.750000E+02	    5.471199E-04	    4.636656E-03	    3.094410E+00	    2.397420E+04	
    8.745815E-04	    1.094284E-02	    6.367751E-03	   -1.000000E+00	    1.208190E-02	    1.200000E-02	    8.750000E+02	    5.459787E-04	    4.634370E-03	    3.097821E+00	    2.398487E+04	
    1.276576E-03	    1.090869E-02	    6.350018E-03	   -1.000000E+00	    1.208161E-02	    1.200000E-02	    8.750000E+02	    5.440408E-04	    4.630437E-03	    3.103581E+00	    2.400263E+04	
    1.711195E-03	    1.085722E-02	    6.323251E-03	   -1.000000E+00	    1.208117E-02	    1.200000E-02	    8.750000E+02	    5.411202E-04	    4.624454E-03	    3.112273E+00	    2.402923E+04	
    2.179257E-03	    1.078470E-02	    6.285481E-03	   -1.000000E+00	    1.208055E-02	    1.200000E-02	    8.750000E+02	    5.370051E-04	    4.615943E-03	    3.124590E+00	    2.406675E+04	
    2.680973E-03	    1.068692E-02	    6.234495E-03	   -1.000000E+00	    1.207972E-02	    1.200000E-02	    8.750000E+02	    5.314598E-04	    4.604346E-03	    3.141348E+00	    2.411765E+04	
    3.215756E-03	    1.055932E-02	    6.167873E-03	   -1.000000E+00	    1.207863E-02	    1.200000E-02	    8.750000E+02	    5.242293E-04	    4.589015E-03	    3.163503E+00	    2.418477E+04	
    3.782009E-03	    1.039707E-02	    6.083041E-03	   -1.000000E+00	    1.207726E-02	    1.200000E-02	    8.750000E+02	    5.150472E-04	    4.569209E-03	    3.192168E+00	    2.427144E+04	
    4.376917E-03	    1.019533E-02	    5.977370E-03	   -1.000000E+00	    1.207555E-02	    1.200000E-02	    8.750000E+02	    5.036481E-04	    4.544091E-03	    3.228623E+00	    2.438146E+04	
    4.996270E-03	    9.949461E-03	    5.848318E-03	   -1.000000E+00	    1.207347E-02	    1.200000E-02	    8.750000E+02	    4.897855E-04	    4.512728E-03	    3.274333E+00	    2.451915E+04	
    5.634336E-03	    9.655463E-03	    5.693609E-03	   -1.000000E+00	    1.207099E-02	    1.200000E-02	    8.750000E+02	    4.732538E-04	    4.474102E-03	    3.330950E+00	    2.468941E+04	
    6.283853E-03	    9.310383E-03	    5.511461E-03	   -1.000000E+00	    1.206809E-02	    1.200000E-02	    8.750000E+02	    4.539150E-04	    4.427126E-03	    3.400321E+00	    2.489767E+04	
    6.936151E-03	    8.912808E-03	    5.300829E-03	   -1.000000E+00	    1.206476E-02	    1.200000E-02	    8.750000E+02	    4.317272E-04	    4.370674E-03	    3.484481E+00	    2.514997E+04	
    7.581457E-03	    8.463336E-03	    5.061652E-03	   -1.000000E+00	    1.206102E-02	    1.200000E-02	    8.750000E+02	    4.067714E-04	    4.303617E-03	    3.585647E+00	    2.545291E+04	
    8.209375E-03	    7.964954E-03	    4.795060E-03	   -1.000000E+00	    1.205689E-02	    1.200000E-02	    8.750000E+02	    3.792718E-04	    4.224878E-03	    3.706196E+00	    2.581367E+04	
    8.809531E-03	    7.423240E-03	    4.503504E-03	   -1.000000E+00	    1.205244E-02	    1.200000E-02	    8.750000E+02	    3.496052E-04	    4.133496E-03	    3.848643E+00	    2.623999E+04	
    9.372308E-03	    6.846328E-03	    4.190769E-03	   -1.000000E+00	    1.204774E-02	    1.200000E-02	    8.750000E+02	    3.182945E-04	    4.028703E-03	    4.015613E+00	    2.674018E+04	
    9.889576E-03	    6.244580E-03	    3.861846E-03	   -1.000000E+00	    1.204290E-02	    1.200000E-02	    8.750000E+02	    2.859843E-04	    3.910004E-03	    4.209813E+00	    2.732316E+04	
    1.035531E-02	    5.629988E-03	    3.522668E-03	   -1.000000E+00	    1.203801E-02	    1.200000E-02	    8.750000E+02	    2.534003E-04	    3.777261E-03	    4.434018E+00	    2.799842E+04	
    1.076597E-02	    5.015363E-03	    3.179736E-03	   -1.000000E+00	    1.203319E-02	    1.200000E-02	    8.750000E+02	    2.212957E-04	    3.630758E-03	    4.691073E+00	    2.877608E+04	
    1.112063E-02	    4.413421E-03	    2.839673E-03	   -1.000000E+00	    1.202856E-02	    1.200000E-02	    8.750000E+02	    1.903936E-04	    3.471256E-03	    4.983926E+00	    2.966687E+04	
    1.142080E-02	    3.835900E-03	    2.508784E-03	   -1.000000E+00	    1.202420E-02	    1.200000E-02	    8.750000E+02	    1.613326E-04	    3.300015E-03	    5.315698E+00	    3.068196E+04	
    1.167000E-02	    3.292815E-03	    2.192664E-03	   -1.000000E+00	    1.202019E-02	    1.200000E-02	    8.750000E+02	    1.346237E-04	    3.118775E-03	    5.689802E+00	    3.183267E+04	
    1.187320E-02	    2.791954E-03	    1.895911E-03	   -1.000000E+00	    1.201659E-02	    1.200000E-02	    8.750000E+02	    1.106243E-04	    2.929705E-03	    6.110092E+00	    3.312976E+04	
    1.203621E-02	    2.338623E-03	    1.621956E-03	   -1.000000E+00	    1.201343E-02	    1.200000E-02	    8.750000E+02	    8.952896E-05	    2.735291E-03	    6.581035E+00	    3.458212E+04	
    1.216511E-02	    1.935652E-03	    1.373009E-03	   -1.000000E+00	    1.201071E-02	    1.200000E-02	    8.750000E+02	    7.137829E-05	    2.538201E-03	    7.107823E+00	    3.619441E+04	
    1.226578E-02	    1.583595E-03	    1.150117E-03	   -1.000000E+00	    1.200841E-02	    1.200000E-02	    8.750000E+02	    5.607990E-05	    2.341098E-03	    7.696307E+00	    3.796306E+04	
    1.234361E-02	    1.281078E-03	    9.532918E-04	   -1.000000E+00	    1.200652E-02	    1.200000E-02	    8.750000E+02	    4.343788E-05	    2.146435E-03	    8.352519E+00	    3.986990E+04	
    1.240330E-02	    1.025222E-03	    7.816934E-04	   -1.000000E+00	    1.200498E-02	    1.200000E-02	    8.750000E+02	    3.318544E-05	    1.956248E-03	    9.081356E+00	    4.187247E+04	
    1.244879E-02	    8.120812E-04	    6.338393E-04	   -1.000000E+00	    1.200375E-02	    1.200000E-02	    8.750000E+02	    2.501678E-05	    1.771966E-03	    9.883938E+00	    4.389031E+04	
    1.248330E-02	    6.370654E-04	    5.078142E-04	   -1.000000E+00	    1.200279E-02	    1.200000E-02	    8.750000E+02	    1.861519E-05	    1.594340E-03	    1.075338E+01	    4.578717E+04	
    1.250938E-02	    4.953042E-04	    4.014593E-04	   -1.000000E+00	    1.200205E-02	    1.200000E-02	    8.750000E+02	    1.367591E-05	    1.423640E-03	    1.167064E+01	    4.734929E+04	
    1.252905E-02	    3.819461E-04	    3.125156E-04	   -1.000000E+00	    1.200149E-02	    1.200000E-02	    8.750000E+02	    9.923147E-06	    1.260494E-03	    1.260907E+01	    4.825794E+04	
    1.254384E-02	    2.923822E-04	    2.387023E-04	   -1.000000E+00	    1.200107E-02	    1.200000E-02	    8.750000E+02	    7.122171E-06	    1.108104E-03	    1.357685E+01	    4.804879E+04	