Title="Fields"
Variables="X""Y""Velocity""Phi""Effective Viscosity""Dynamic Viscosity""Density"
Zone I=52 J=52 F=POINT
   -1.114743E-02	    5.080322E-05	    0.000000E+00	    0.000000E+00	    1.000000E-03	    1.000000E-03	    1.000000E+03	
   -1.114172E-02	    6.397036E-05	    0.000000E+00	    0.000000E+00	    1.000000E-03	    1.000000E-03	    1.000000E+03	
   -1.112548E-02	    1.011351E-04	    0.000000E+00	    0.000000E+00	    1.000000E-03	    1.000000E-03	    1.000000E+03	
   -1.110007E-02	    1.586052E-04	    0.000000E+00	    0.000000E+00	    1.000000E-03	    1.000000E-03	    1.000000E+03	
   -1.106098E-02	    2.455264E-04	    0.000000E+00	    0.000000E+00	    1.000000E-03	    1.000000E-03	    1.000000E+03	
   -1.100192E-02	    3.734769E-04	    0.000000E+00	    0.000000E+00	    1.000000E-03	    1.000000E-03	    1.000000E+03	
   -1.091455E-02	    5.559447E-04	    0.000000E+00	    0.000000E+00	    1.000000E-03	    1.000000E-03	    1.000000E+03	
   -1.078817E-02	    8.069610E-04	    0.000000E+00	    0.000000E+00	    1.000000E-03	    1.000000E-03	    1.000000E+03	
   -1.060969E-02	    1.138766E-03	    0.000000E+00	    0.000000E+00	    1.000000E-03	    1.000000E-03	    1.000000E+03	
   -1.036420E-02	    1.558688E-03	    0.000000E+00	    0.000000E+00	    1.000000E-03	    1.000000E-03	    1.000000E+03	
   -1.003631E-02	    2.065858E-03	    0.000000E+00	    0.000000E+00	    1.000000E-03	    1.000000E-03	    1.000000E+03	
   -9.612703E-03	    2.648784E-03	    0.000000E+00	    0.000000E+00	    1.000000E-03	    1.000000E-03	    1.000000E+03	
   -9.085389E-03	    3.284979E-03	    0.000000E+00	    0.000000E+00	    1.000000E-03	    1.000000E-03	    1.000000E+03	
   -8.455075E-03	    3.943365E-03	    0.000000E+00	    0.000000E+00	    1.000000E-03	    1.000000E-03	    1.000000E+03	
   -7.733047E-03	    4.589238E-03	    0.000000E+00	    0.000000E+00	    1.000000E-03	    1.000000E-03	    1.000000E+03	
   -6.940615E-03	    5.190353E-03	    0.000000E+00	    0.000000E+00	    1.000000E-03	    1.000000E-03	    1.000000E+03	
   -6.105961E-03	    5.722145E-03	    0.000000E+00	    0.000000E+00	    1.000000E-03	    1.000000E-03	    1.000000E+03	
   -5.259499E-03	    6.170506E-03	    0.000000E+00	    0.000000E+00	    1.000000E-03	    1.000000E-03	    1.000000E+03	
   -4.429323E-03	    6.531740E-03	    0.000000E+00	    0.000000E+00	    1.000000E-03	    1.000000E-03	    1.000000E+03	
   -3.638049E-03	    6.810418E-03	    0.000000E+00	    0.000000E+00	    1.000000E-03	    1.000000E-03	    1.000000E+03	
   -2.901455E-03	    7.016350E-03	    0.000000E+00	    0.000000E+00	    1.000000E-03	    1.000000E-03	    1.000000E+03	
   -2.228670E-03	    7.161722E-03	    0.000000E+00	    0.000000E+00	    1.000000E-03	    1.000000E-03	    1.000000E+03	
   -1.623282E-03	    7.258946E-03	    0.000000E+00	    0.000000E+00	    1.000000E-03	    1.000000E-03	    1.000000E+03	
   -1.084780E-03	    7.319350E-03	    0.000000E+00	    0.000000E+00	    1.000000E-03	    1.000000E-03	    1.000000E+03	
   -6.099366E-04	    7.352554E-03	    0.000000E+00	    0.000000E+00	    1.000000E-03	    1.000000E-03	    1.000000E+03	
   -1.939448E-04	    7.366325E-03	    0.000000E+00	    0.000000E+00	    1.000000E-03	    1.000000E-03	    1.000000E+03	
    1.939448E-04	    7.366325E-03	    0.000000E+00	    0.000000E+00	    1.000000E-03	    1.000000E-03	    1.000000E+03	
    6.099366E-04	    7.352554E-03	    0.000000E+00	    0.000000E+00	    1.000000E-03	    1.000000E-03	    1.000000E+03	
    1.084780E-03	    7.319350E-03	    0.000000E+00	    0.000000E+00	    1.000000E-03	    1.000000E-03	    1.000000E+03	
    1.623282E-03	    7.258946E-03	    0.000000E+00	    0.000000E+00	    1.000000E-03	    1.000000E-03	    1.000000E+03	
    2.228670E-03	    7.161722E-03	    0.000000E+00	    0.000000E+00	    1.000000E-03	    1.000000E-03	    1.000000E+03	
    2.901455E-03	    7.016350E-03	    0.000000E+00	    0.000000E+00	    1.000000E-03	    1.000000E-03	    1.000000E+03	
    3.638049E-03	    6.810418E-03	    0.000000E+00	    0.000000E+00	    1.000000E-03	    1.000000E-03	    1.000000E+03	
    4.429323E-03	    6.531740E-03	    0.000000E+00	    0.000000E+00	    1.000000E-03	    1.000000E-03	    1.000000E+03	
    5.259499E-03	    6.170506E-03	    0.000000E+00	    0.000000E+00	    1.000000E-03	    1.000000E-03	    1.000000E+03	
    6.105961E-03	    5.722145E-03	    0.000000E+00	    0.000000E+00	    1.000000E-03	    1.000000E-03	    1.000000E+03	
    6.940615E-03	    5.190353E-03	    0.000000E+00	    0.000000E+00	    1.000000E-03	    1.000000E-03	    1.000000E+03	
    7.733047E-03	    4.589238E-03	    0.000000E+00	    0.000000E+00	    1.000000E-03	    1.000000E-03	    1.000000E+03	
    8.455075E-03	    3.943365E-03	    0.000000E+00	    0.000000E+00	    1.000000E-03	    1.000000E-03	    1.000000E+03	
    9.085389E-03	    3.284979E-03	    0.000000E+00	    0.000000E+00	    1.000000E-03	    1.000000E-03	    1.000000E+03	
    9.612703E-03	    2.648784E-03	    0.000000E+00	    0.000000E+00	    1.000000E-03	    1.000000E-03	    1.000000E+03	
    1.003631E-02	    2.065858E-03	    0.000000E+00	    0.000000E+00	    1.000000E-03	    1.000000E-03	    1.000000E+03	
    1.036420E-02	    1.558688E-03	    0.000000E+00	    0.000000E+00	    1.000000E-03	    1.000000E-03	    1.000000E+03	
    1.060969E-02	    1.138766E-03	    0.000000E+00	    0.000000E+00	    1.000000E-03	    1.000000E-03	    1.000000E+03	
    1.078817E-02	    8.069610E-04	    0.000000E+00	    0.000000E+00	    1.000000E-03	    1.000000E-03	    1.000000E+03	
    1.091455E-02	    5.559447E-04	    0.000000E+00	    0.000000E+00	    1.000000E-03	    1.000000E-03	    1.000000E+03	
    1.100192E-02	    3.734769E-04	    0.000000E+00	    0.000000E+00	    1.000000E-03	    1.000000E-03	    1.000000E+03	
    1.106098E-02	    2.455264E-04	    0.000000E+00	    0.000000E+00	    1.000000E-03	    1.000000E-03	    1.000000E+03	
    1.110007E-02	    1.586052E-04	    0.000000E+00	    0.000000E+00	    1.000000E-03	    1.000000E-03	    1.000000E+03	
    1.112548E-02	    1.011351E-04	    0.000000E+00	    0.000000E+00	    1.000000E-03	    1.000000E-03	    1.000000E+03	
    1.114172E-02	    6.397036E-05	    0.000000E+00	    0.000000E+00	    1.000000E-03	    1.000000E-03	    1.000000E+03	
    1.114743E-02	    5.080322E-05	    0.000000E+00	    0.000000E+00	    1.000000E-03	    1.000000E-03	    1.000000E+03	
   -1.114718E-02	    5.069151E-05	    0.000000E+00	    0.000000E+00	    1.000000E-03	    1.000000E-03	    1.000000E+03	
   -1.114139E-02	    6.382932E-05	    2.366538E-05	   -1.000000E+00	    1.000000E-03	    1.600000E-03	    8.010000E+02	
   -1.112497E-02	    1.009104E-04	    7.547968E-05	   -1.000000E+00	    1.000000E-03	    1.600000E-03	    8.010000E+02	
   -1.109928E-02	    1.582488E-04	    1.418124E-04	   -1.000000E+00	    1.000000E-03	    1.600000E-03	    8.010000E+02	
   -1.105975E-02	    2.449650E-04	    2.337908E-04	   -1.000000E+00	    1.000000E-03	    1.600000E-03	    8.010000E+02	
   -1.100006E-02	    3.726013E-04	    3.642177E-04	   -1.000000E+00	    1.000000E-03	    1.600000E-03	    8.010000E+02	
   -1.091181E-02	    5.545957E-04	    5.473565E-04	   -1.000000E+00	    1.000000E-03	    1.600000E-03	    8.010000E+02	
   -1.078424E-02	    8.049116E-04	    7.977752E-04	   -1.000000E+00	    1.000000E-03	    1.600000E-03	    8.010000E+02	
   -1.060423E-02	    1.135704E-03	    1.128132E-03	   -1.000000E+00	    1.000000E-03	    1.600000E-03	    8.010000E+02	
   -1.035690E-02	    1.554202E-03	    1.546091E-03	   -1.000000E+00	    1.000000E-03	    1.600000E-03	    8.010000E+02	
   -1.002695E-02	    2.059440E-03	    2.051017E-03	   -1.000000E+00	    1.000000E-03	    1.600000E-03	    8.010000E+02	
   -9.601211E-03	    2.639861E-03	    2.631529E-03	   -1.000000E+00	    1.000000E-03	    1.600000E-03	    8.010000E+02	
   -9.071924E-03	    3.272973E-03	    3.265136E-03	   -1.000000E+00	    1.000000E-03	    1.600000E-03	    8.010000E+02	
   -8.440036E-03	    3.927786E-03	    3.920712E-03	   -1.000000E+00	    1.000000E-03	    1.600000E-03	    8.010000E+02	
   -7.717044E-03	    4.569776E-03	    4.563523E-03	   -1.000000E+00	    1.000000E-03	    1.600000E-03	    8.010000E+02	
   -6.924375E-03	    5.166942E-03	    5.161378E-03	   -1.000000E+00	    1.000000E-03	    1.600000E-03	    8.010000E+02	
   -6.090215E-03	    5.694970E-03	    5.689842E-03	   -1.000000E+00	    1.000000E-03	    1.600000E-03	    8.010000E+02	
   -5.244875E-03	    6.139960E-03	    6.134985E-03	   -1.000000E+00	    1.000000E-03	    1.600000E-03	    8.010000E+02	
   -4.416289E-03	    6.498349E-03	    6.493277E-03	   -1.000000E+00	    1.000000E-03	    1.600000E-03	    8.010000E+02	
   -3.626888E-03	    6.774751E-03	    6.769404E-03	   -1.000000E+00	    1.000000E-03	    1.600000E-03	    8.010000E+02	
   -2.892285E-03	    6.978957E-03	    6.973229E-03	   -1.000000E+00	    1.000000E-03	    1.600000E-03	    8.010000E+02	
   -2.221481E-03	    7.123088E-03	    7.116933E-03	   -1.000000E+00	    1.000000E-03	    1.600000E-03	    8.010000E+02	
   -1.617975E-03	    7.219472E-03	    7.212884E-03	   -1.000000E+00	    1.000000E-03	    1.600000E-03	    8.010000E+02	
   -1.081204E-03	    7.279349E-03	    7.272346E-03	   -1.000000E+00	    1.000000E-03	    1.600000E-03	    8.010000E+02	
   -6.079169E-04	    7.312262E-03	    7.304868E-03	   -1.000000E+00	    1.000000E-03	    1.600000E-03	    8.010000E+02	
   -1.933014E-04	    7.325912E-03	    7.318148E-03	   -1.000000E+00	    1.000000E-03	    1.600000E-03	    8.010000E+02	
    1.933014E-04	    7.325912E-03	    7.318148E-03	   -1.000000E+00	    1.000000E-03	    1.600000E-03	    8.010000E+02	
    6.079169E-04	    7.312262E-03	    7.304868E-03	   -1.000000E+00	    1.000000E-03	    1.600000E-03	    8.010000E+02	
    1.081204E-03	    7.279349E-03	    7.272346E-03	   -1.000000E+00	    1.000000E-03	    1.600000E-03	    8.010000E+02	
    1.617975E-03	    7.219472E-03	    7.212884E-03	   -1.000000E+00	    1.000000E-03	    1.600000E-03	    8.010000E+02	
    2.221481E-03	    7.123088E-03	    7.116933E-03	   -1.000000E+00	    1.000000E-03	    1.600000E-03	    8.010000E+02	
    2.892285E-03	    6.978957E-03	    6.973229E-03	   -1.000000E+00	    1.000000E-03	    1.600000E-03	    8.010000E+02	
    3.626888E-03	    6.774751E-03	    6.769404E-03	   -1.000000E+00	    1.000000E-03	    1.600000E-03	    8.010000E+02	
    4.416289E-03	    6.498349E-03	    6.493277E-03	   -1.000000E+00	    1.000000E-03	    1.600000E-03	    8.010000E+02	
    5.244875E-03	    6.139960E-03	    6.134985E-03	   -1.000000E+00	    1.000000E-03	    1.600000E-03	    8.010000E+02	
    6.090215E-03	    5.694970E-03	    5.689842E-03	   -1.000000E+00	    1.000000E-03	    1.600000E-03	    8.010000E+02	
    6.924375E-03	    5.166942E-03	    5.161378E-03	   -1.000000E+00	    1.000000E-03	    1.600000E-03	    8.010000E+02	
    7.717044E-03	    4.569776E-03	    4.563523E-03	   -1.000000E+00	    1.000000E-03	    1.600000E-03	    8.010000E+02	
    8.440036E-03	    3.927786E-03	    3.920712E-03	   -1.000000E+00	    1.000000E-03	    1.600000E-03	    8.010000E+02	
    9.071924E-03	    3.272973E-03	    3.265136E-03	   -1.000000E+00	    1.000000E-03	    1.600000E-03	    8.010000E+02	
    9.601211E-03	    2.639861E-03	    2.631529E-03	   -1.000000E+00	    1.000000E-03	    1.600000E-03	    8.010000E+02	
    1.002695E-02	    2.059440E-03	    2.051017E-03	   -1.000000E+00	    1.000000E-03	    1.600000E-03	    8.010000E+02	
    1.035690E-02	    1.554202E-03	    1.546091E-03	   -1.000000E+00	    1.000000E-03	    1.600000E-03	    8.010000E+02	
    1.060423E-02	    1.135704E-03	    1.128132E-03	   -1.000000E+00	    1.000000E-03	    1.600000E-03	    8.010000E+02	
    1.078424E-02	    8.049116E-04	    7.977752E-04	   -1.000000E+00	    1.000000E-03	    1.600000E-03	    8.010000E+02	
    1.091181E-02	    5.545957E-04	    5.473565E-04	   -1.000000E+00	    1.000000E-03	    1.600000E-03	    8.010000E+02	
    1.100006E-02	    3.726013E-04	    3.642177E-04	   -1.000000E+00	    1.000000E-03	    1.600000E-03	    8.010000E+02	
    1.105975E-02	    2.449650E-04	    2.337908E-04	   -1.000000E+00	    1.000000E-03	    1.600000E-03	    8.010000E+02	
    1.109928E-02	    1.582488E-04	    1.418124E-04	   -1.000000E+00	    1.000000E-03	    1.600000E-03	    8.010000E+02	
    1.112497E-02	    1.009104E-04	    7.547968E-05	   -1.000000E+00	    1.000000E-03	    1.600000E-03	    8.010000E+02	
    1.114139E-02	    6.382932E-05	    2.366538E-05	   -1.000000E+00	    1.000000E-03	    1.600000E-03	    8.010000E+02	
    1.114718E-02	    5.069151E-05	    0.000000E+00	    0.000000E+00	    1.000000E-03	    1.000000E-03	    1.000000E+03	
   -1.114659E-02	    5.042805E-05	    0.000000E+00	    0.000000E+00	    1.000000E-03	    1.000000E-03	    1.000000E+03	
   -1.114065E-02	    6.349671E-05	    7.841604E-05	   -1.000000E+00	    1.000000E-03	    1.600000E-03	    8.010000E+02	
   -1.112380E-02	    1.003807E-04	    2.501159E-04	   -1.000000E+00	    1.000000E-03	    1.600000E-03	    8.010000E+02	
   -1.109745E-02	    1.574086E-04	    4.698970E-04	   -1.000000E+00	    1.000000E-03	    1.600000E-03	    8.010000E+02	
   -1.105692E-02	    2.436424E-04	    7.745904E-04	   -1.000000E+00	    1.000000E-03	    1.600000E-03	    8.010000E+02	
   -1.099579E-02	    3.705403E-04	    1.206529E-03	   -1.000000E+00	    1.000000E-03	    1.600000E-03	    8.010000E+02	
   -1.090550E-02	    5.514232E-04	    1.812792E-03	   -1.000000E+00	    1.000000E-03	    1.600000E-03	    8.010000E+02	
   -1.077518E-02	    8.000981E-04	    2.641324E-03	   -1.000000E+00	    1.000000E-03	    1.600000E-03	    8.010000E+02	
   -1.059167E-02	    1.128523E-03	    3.733533E-03	   -1.000000E+00	    1.000000E-03	    1.600000E-03	    8.010000E+02	
   -1.034012E-02	    1.543701E-03	    5.114064E-03	   -1.000000E+00	    1.000000E-03	    1.600000E-03	    8.010000E+02	
   -1.000544E-02	    2.044449E-03	    6.779910E-03	   -1.000000E+00	    1.000000E-03	    1.600000E-03	    8.010000E+02	
   -9.574818E-03	    2.619061E-03	    8.692518E-03	   -1.000000E+00	    1.000000E-03	    1.600000E-03	    8.010000E+02	
   -9.041025E-03	    3.245044E-03	    1.077688E-02	   -1.000000E+00	    1.000000E-03	    1.600000E-03	    8.010000E+02	
   -8.405561E-03	    3.891618E-03	    1.293001E-02	   -1.000000E+00	    1.000000E-03	    1.600000E-03	    8.010000E+02	
   -7.680395E-03	    4.524675E-03	    1.503777E-02	   -1.000000E+00	    1.000000E-03	    1.600000E-03	    8.010000E+02	
   -6.887216E-03	    5.112775E-03	    1.699504E-02	   -1.000000E+00	    1.000000E-03	    1.600000E-03	    8.010000E+02	
   -6.054212E-03	    5.632178E-03	    1.872268E-02	   -1.000000E+00	    1.000000E-03	    1.600000E-03	    8.010000E+02	
   -5.211462E-03	    6.069459E-03	    2.017613E-02	   -1.000000E+00	    1.000000E-03	    1.600000E-03	    8.010000E+02	
   -4.386524E-03	    6.421344E-03	    2.134480E-02	   -1.000000E+00	    1.000000E-03	    1.600000E-03	    8.010000E+02	
   -3.601411E-03	    6.692553E-03	    2.224472E-02	   -1.000000E+00	    1.000000E-03	    1.600000E-03	    8.010000E+02	
   -2.871360E-03	    6.892822E-03	    2.290860E-02	   -1.000000E+00	    1.000000E-03	    1.600000E-03	    8.010000E+02	
   -2.205080E-03	    7.034123E-03	    2.337644E-02	   -1.000000E+00	    1.000000E-03	    1.600000E-03	    8.010000E+02	
   -1.605869E-03	    7.128591E-03	    2.368871E-02	   -1.000000E+00	    1.000000E-03	    1.600000E-03	    8.010000E+02	
   -1.073048E-03	    7.187268E-03	    2.388218E-02	   -1.000000E+00	    1.000000E-03	    1.600000E-03	    8.010000E+02	
   -6.033104E-04	    7.219518E-03	    2.398797E-02	   -1.000000E+00	    1.000000E-03	    1.600000E-03	    8.010000E+02	
   -1.918339E-04	    7.232893E-03	    2.403116E-02	   -1.000000E+00	    1.000000E-03	    1.600000E-03	    8.010000E+02	
    1.918339E-04	    7.232893E-03	    2.403116E-02	   -1.000000E+00	    1.000000E-03	    1.600000E-03	    8.010000E+02	
    6.033104E-04	    7.219518E-03	    2.398797E-02	   -1.000000E+00	    1.000000E-03	    1.600000E-03	    8.010000E+02	
    1.073048E-03	    7.187268E-03	    2.388218E-02	   -1.000000E+00	    1.000000E-03	    1.600000E-03	    8.010000E+02	
    1.605869E-03	    7.128591E-03	    2.368871E-02	   -1.000000E+00	    1.000000E-03	    1.600000E-03	    8.010000E+02	
    2.205080E-03	    7.034123E-03	    2.337644E-02	   -1.000000E+00	    1.000000E-03	    1.600000E-03	    8.010000E+02	
    2.871360E-03	    6.892822E-03	    2.290860E-02	   -1.000000E+00	    1.000000E-03	    1.600000E-03	    8.010000E+02	
    3.601411E-03	    6.692553E-03	    2.224472E-02	   -1.000000E+00	    1.000000E-03	    1.600000E-03	    8.010000E+02	
    4.386524E-03	    6.421344E-03	    2.134480E-02	   -1.000000E+00	    1.000000E-03	    1.600000E-03	    8.010000E+02	
    5.211462E-03	    6.069459E-03	    2.017613E-02	   -1.000000E+00	    1.000000E-03	    1.600000E-03	    8.010000E+02	
    6.054212E-03	    5.632178E-03	    1.872268E-02	   -1.000000E+00	    1.000000E-03	    1.600000E-03	    8.010000E+02	
    6.887216E-03	    5.112775E-03	    1.699504E-02	   -1.000000E+00	    1.000000E-03	    1.600000E-03	    8.010000E+02	
    7.680395E-03	    4.524675E-03	    1.503777E-02	   -1.000000E+00	    1.000000E-03	    1.600000E-03	    8.010000E+02	
    8.405561E-03	    3.891618E-03	    1.293001E-02	   -1.000000E+00	    1.000000E-03	    1.600000E-03	    8.010000E+02	
    9.041025E-03	    3.245044E-03	    1.077688E-02	   -1.000000E+00	    1.000000E-03	    1.600000E-03	    8.010000E+02	
    9.574818E-03	    2.619061E-03	    8.692518E-03	   -1.000000E+00	    1.000000E-03	    1.600000E-03	    8.010000E+02	
    1.000544E-02	    2.044449E-03	    6.779910E-03	   -1.000000E+00	    1.000000E-03	    1.600000E-03	    8.010000E+02	
    1.034012E-02	    1.543701E-03	    5.114064E-03	   -1.000000E+00	    1.000000E-03	    1.600000E-03	    8.010000E+02	
    1.059167E-02	    1.128523E-03	    3.733533E-03	   -1.000000E+00	    1.000000E-03	    1.600000E-03	    8.010000E+02	
    1.077518E-02	    8.000981E-04	    2.641324E-03	   -1.000000E+00	    1.000000E-03	    1.600000E-03	    8.010000E+02	
    1.090550E-02	    5.514232E-04	    1.812792E-03	   -1.000000E+00	    1.000000E-03	    1.600000E-03	    8.010000E+02	
    1.099579E-02	    3.705403E-04	    1.206529E-03	   -1.000000E+00	    1.000000E-03	    1.600000E-03	    8.010000E+02	
    1.105692E-02	    2.436424E-04	    7.745904E-04	   -1.000000E+00	    1.000000E-03	    1.600000E-03	    8.010000E+02	
    1.109745E-02	    1.574086E-04	    4.698970E-04	   -1.000000E+00	    1.000000E-03	    1.600000E-03	    8.010000E+02	
    1.112380E-02	    1.003807E-04	    2.501159E-04	   -1.000000E+00	    1.000000E-03	    1.600000E-03	    8.010000E+02	
    1.114065E-02	    6.349671E-05	    7.841604E-05	   -1.000000E+00	    1.000000E-03	    1.600000E-03	    8.010000E+02	
    1.114659E-02	    5.042805E-05	    0.000000E+00	    0.000000E+00	    1.000000E-03	    1.000000E-03	    1.000000E+03	
   -1.114582E-02	    5.007267E-05	    0.000000E+00	    0.000000E+00	    1.000000E-03	    1.000000E-03	    1.000000E+03	
   -1.113969E-02	    6.304811E-05	    1.500728E-04	   -1.000000E+00	    1.000000E-03	    1.600000E-03	    8.010000E+02	
   -1.112227E-02	    9.966650E-05	    4.786950E-04	   -1.000000E+00	    1.000000E-03	    1.600000E-03	    8.010000E+02	
   -1.109506E-02	    1.562765E-04	    8.992807E-04	   -1.000000E+00	    1.000000E-03	    1.600000E-03	    8.010000E+02	
   -1.105324E-02	    2.418615E-04	    1.482234E-03	   -1.000000E+00	    1.000000E-03	    1.600000E-03	    8.010000E+02	
   -1.099022E-02	    3.677681E-04	    2.308381E-03	   -1.000000E+00	    1.000000E-03	    1.600000E-03	    8.010000E+02	
   -1.089729E-02	    5.471626E-04	    3.467445E-03	   -1.000000E+00	    1.000000E-03	    1.600000E-03	    8.010000E+02	
   -1.076341E-02	    7.936468E-04	    5.050487E-03	   -1.000000E+00	    1.000000E-03	    1.600000E-03	    8.010000E+02	
   -1.057537E-02	    1.118921E-03	    7.135646E-03	   -1.000000E+00	    1.000000E-03	    1.600000E-03	    8.010000E+02	
   -1.031836E-02	    1.529701E-03	    9.768520E-03	   -1.000000E+00	    1.000000E-03	    1.600000E-03	    8.010000E+02	
   -9.977569E-03	    2.024526E-03	    1.294149E-02	   -1.000000E+00	    1.000000E-03	    1.600000E-03	    8.010000E+02	
   -9.540679E-03	    2.591509E-03	    1.657904E-02	   -1.000000E+00	    1.000000E-03	    1.600000E-03	    8.010000E+02	
   -9.001118E-03	    3.208174E-03	    2.053665E-02	   -1.000000E+00	    1.000000E-03	    1.600000E-03	    8.010000E+02	
   -8.361106E-03	    3.844020E-03	    2.461760E-02	   -1.000000E+00	    1.000000E-03	    1.600000E-03	    8.010000E+02	
   -7.633208E-03	    4.465493E-03	    2.860546E-02	   -1.000000E+00	    1.000000E-03	    1.600000E-03	    8.010000E+02	
   -6.839441E-03	    5.041874E-03	    3.230231E-02	   -1.000000E+00	    1.000000E-03	    1.600000E-03	    8.010000E+02	
   -6.007981E-03	    5.550164E-03	    3.556037E-02	   -1.000000E+00	    1.000000E-03	    1.600000E-03	    8.010000E+02	
   -5.168603E-03	    5.977533E-03	    3.829767E-02	   -1.000000E+00	    1.000000E-03	    1.600000E-03	    8.010000E+02	
   -4.348375E-03	    6.321075E-03	    4.049619E-02	   -1.000000E+00	    1.000000E-03	    1.600000E-03	    8.010000E+02	
   -3.568779E-03	    6.585629E-03	    4.218766E-02	   -1.000000E+00	    1.000000E-03	    1.600000E-03	    8.010000E+02	
   -2.844572E-03	    6.780860E-03	    4.343461E-02	   -1.000000E+00	    1.000000E-03	    1.600000E-03	    8.010000E+02	
   -2.184090E-03	    6.918543E-03	    4.431291E-02	   -1.000000E+00	    1.000000E-03	    1.600000E-03	    8.010000E+02	
   -1.590380E-03	    7.010563E-03	    4.489895E-02	   -1.000000E+00	    1.000000E-03	    1.600000E-03	    8.010000E+02	
   -1.062613E-03	    7.067707E-03	    4.526193E-02	   -1.000000E+00	    1.000000E-03	    1.600000E-03	    8.010000E+02	
   -5.974177E-04	    7.099111E-03	    4.546038E-02	   -1.000000E+00	    1.000000E-03	    1.600000E-03	    8.010000E+02	
   -1.899568E-04	    7.112134E-03	    4.554137E-02	   -1.000000E+00	    1.000000E-03	    1.600000E-03	    8.010000E+02	
    1.899568E-04	    7.112134E-03	    4.554137E-02	   -1.000000E+00	    1.000000E-03	    1.600000E-03	    8.010000E+02	
    5.974177E-04	    7.099111E-03	    4.546038E-02	   -1.000000E+00	    1.000000E-03	    1.600000E-03	    8.010000E+02	
    1.062613E-03	    7.067707E-03	    4.526193E-02	   -1.000000E+00	    1.000000E-03	    1.600000E-03	    8.010000E+02	
    1.590380E-03	    7.010563E-03	    4.489895E-02	   -1.000000E+00	    1.000000E-03	    1.600000E-03	    8.010000E+02	
    2.184090E-03	    6.918543E-03	    4.431291E-02	   -1.000000E+00	    1.000000E-03	    1.600000E-03	    8.010000E+02	
    2.844572E-03	    6.780860E-03	    4.343461E-02	   -1.000000E+00	    1.000000E-03	    1.600000E-03	    8.010000E+02	
    3.568779E-03	    6.585629E-03	    4.218766E-02	   -1.000000E+00	    1.000000E-03	    1.600000E-03	    8.010000E+02	
    4.348375E-03	    6.321075E-03	    4.049619E-02	   -1.000000E+00	    1.000000E-03	    1.600000E-03	    8.010000E+02	
    5.168603E-03	    5.977533E-03	    3.829767E-02	   -1.000000E+00	    1.000000E-03	    1.600000E-03	    8.010000E+02	
    6.007981E-03	    5.550164E-03	    3.556037E-02	   -1.000000E+00	    1.000000E-03	    1.600000E-03	    8.010000E+02	
    6.839441E-03	    5.041874E-03	    3.230231E-02	   -1.000000E+00	    1.000000E-03	    1.600000E-03	    8.010000E+02	
    7.633208E-03	    4.465493E-03	    2.860546E-02	   -1.000000E+00	    1.000000E-03	    1.600000E-03	    8.010000E+02	
    8.361106E-03	    3.844020E-03	    2.461760E-02	   -1.000000E+00	    1.000000E-03	    1.600000E-03	    8.010000E+02	
    9.001118E-03	    3.208174E-03	    2.053665E-02	   -1.000000E+00	    1.000000E-03	    1.600000E-03	    8.010000E+02	
    9.540679E-03	    2.591509E-03	    1.657904E-02	   -1.000000E+00	    1.000000E-03	    1.600000E-03	    8.010000E+02	
    9.977569E-03	    2.024526E-03	    1.294149E-02	   -1.000000E+00	    1.000000E-03	    1.600000E-03	    8.010000E+02	
    1.031836E-02	    1.529701E-03	    9.768520E-03	   -1.000000E+00	    1.000000E-03	    1.600000E-03	    8.010000E+02	
    1.057537E-02	    1.118921E-03	    7.135646E-03	   -1.000000E+00	    1.000000E-03	    1.600000E-03	    8.010000E+02	
    1.076341E-02	    7.936468E-04	    5.050487E-03	   -1.000000E+00	    1.000000E-03	    1.600000E-03	    8.010000E+02	
    1.089729E-02	    5.471626E-04	    3.467445E-03	   -1.000000E+00	    1.000000E-03	    1.600000E-03	    8.010000E+02	
    1.099022E-02	    3.677681E-04	    2.308381E-03	   -1.000000E+00	    1.000000E-03	    1.600000E-03	    8.010000E+02	
    1.105324E-02	    2.418615E-04	    1.482234E-03	   -1.000000E+00	    1.000000E-03	    1.600000E-03	    8.010000E+02	
    1.109506E-02	    1.562765E-04	    8.992807E-04	   -1.000000E+00	    1.000000E-03	    1.600000E-03	    8.010000E+02	
    1.112227E-02	    9.966650E-05	    4.786950E-04	   -1.000000E+00	    1.000000E-03	    1.600000E-03	    8.010000E+02	
    1.113969E-02	    6.304811E-05	    1.500728E-04	   -1.000000E+00	    1.000000E-03	    1.600000E-03	    8.010000E+02	
    1.114582E-02	    5.007267E-05	    0.000000E+00	    0.000000E+00	    1.000000E-03	    1.000000E-03	    1.000000E+03	
   -1.114483E-02	    4.959332E-05	    0.000000E+00	    0.000000E+00	    1.000000E-03	    1.000000E-03	    1.000000E+03	
   -1.113844E-02	    6.244310E-05	    2.431137E-04	   -1.000000E+00	    1.000000E-03	    1.600000E-03	    8.010000E+02	
   -1.112031E-02	    9.870370E-05	    7.755161E-04	   -1.000000E+00	    1.000000E-03	    1.600000E-03	    8.010000E+02	
   -1.109199E-02	    1.547513E-04	    1.456785E-03	   -1.000000E+00	    1.000000E-03	    1.600000E-03	    8.010000E+02	
   -1.104850E-02	    2.394647E-04	    2.400802E-03	   -1.000000E+00	    1.000000E-03	    1.600000E-03	    8.010000E+02	
   -1.098306E-02	    3.640423E-04	    3.738119E-03	   -1.000000E+00	    1.000000E-03	    1.600000E-03	    8.010000E+02	
   -1.088672E-02	    5.414472E-04	    5.613308E-03	   -1.000000E+00	    1.000000E-03	    1.600000E-03	    8.010000E+02	
   -1.074829E-02	    7.850139E-04	    8.172482E-03	   -1.000000E+00	    1.000000E-03	    1.600000E-03	    8.010000E+02	
   -1.055442E-02	    1.106113E-03	    1.153997E-02	   -1.000000E+00	    1.000000E-03	    1.600000E-03	    8.010000E+02	
   -1.029044E-02	    1.511092E-03	    1.578650E-02	   -1.000000E+00	    1.000000E-03	    1.600000E-03	    8.010000E+02	
   -9.941870E-03	    1.998148E-03	    2.089598E-02	   -1.000000E+00	    1.000000E-03	    1.600000E-03	    8.010000E+02	
   -9.497027E-03	    2.555184E-03	    2.674264E-02	   -1.000000E+00	    1.000000E-03	    1.600000E-03	    8.010000E+02	
   -8.950190E-03	    3.159764E-03	    3.309049E-02	   -1.000000E+00	    1.000000E-03	    1.600000E-03	    8.010000E+02	
   -8.304487E-03	    3.781775E-03	    3.962177E-02	   -1.000000E+00	    1.000000E-03	    1.600000E-03	    8.010000E+02	
   -7.573227E-03	    4.388381E-03	    4.598991E-02	   -1.000000E+00	    1.000000E-03	    1.600000E-03	    8.010000E+02	
   -6.778822E-03	    4.949788E-03	    5.188085E-02	   -1.000000E+00	    1.000000E-03	    1.600000E-03	    8.010000E+02	
   -5.949415E-03	    5.443930E-03	    5.706262E-02	   -1.000000E+00	    1.000000E-03	    1.600000E-03	    8.010000E+02	
   -5.114380E-03	    5.858721E-03	    6.140891E-02	   -1.000000E+00	    1.000000E-03	    1.600000E-03	    8.010000E+02	
   -4.300165E-03	    6.191702E-03	    6.489492E-02	   -1.000000E+00	    1.000000E-03	    1.600000E-03	    8.010000E+02	
   -3.527575E-03	    6.447850E-03	    6.757402E-02	   -1.000000E+00	    1.000000E-03	    1.600000E-03	    8.010000E+02	
   -2.810768E-03	    6.636725E-03	    6.954740E-02	   -1.000000E+00	    1.000000E-03	    1.600000E-03	    8.010000E+02	
   -2.157614E-03	    6.769847E-03	    7.093652E-02	   -1.000000E+00	    1.000000E-03	    1.600000E-03	    8.010000E+02	
   -1.570848E-03	    6.858783E-03	    7.186298E-02	   -1.000000E+00	    1.000000E-03	    1.600000E-03	    8.010000E+02	
   -1.049458E-03	    6.913998E-03	    7.243664E-02	   -1.000000E+00	    1.000000E-03	    1.600000E-03	    8.010000E+02	
   -5.899890E-04	    6.944337E-03	    7.275018E-02	   -1.000000E+00	    1.000000E-03	    1.600000E-03	    8.010000E+02	
   -1.875905E-04	    6.956918E-03	    7.287811E-02	   -1.000000E+00	    1.000000E-03	    1.600000E-03	    8.010000E+02	
    1.875905E-04	    6.956918E-03	    7.287811E-02	   -1.000000E+00	    1.000000E-03	    1.600000E-03	    8.010000E+02	
    5.899890E-04	    6.944337E-03	    7.275018E-02	   -1.000000E+00	    1.000000E-03	    1.600000E-03	    8.010000E+02	
    1.049458E-03	    6.913998E-03	    7.243664E-02	   -1.000000E+00	    1.000000E-03	    1.600000E-03	    8.010000E+02	
    1.570848E-03	    6.858783E-03	    7.186298E-02	   -1.000000E+00	    1.000000E-03	    1.600000E-03	    8.010000E+02	
    2.157614E-03	    6.769847E-03	    7.093652E-02	   -1.000000E+00	    1.000000E-03	    1.600000E-03	    8.010000E+02	
    2.810768E-03	    6.636725E-03	    6.954740E-02	   -1.000000E+00	    1.000000E-03	    1.600000E-03	    8.010000E+02	
    3.527575E-03	    6.447850E-03	    6.757402E-02	   -1.000000E+00	    1.000000E-03	    1.600000E-03	    8.010000E+02	
    4.300165E-03	    6.191702E-03	    6.489492E-02	   -1.000000E+00	    1.000000E-03	    1.600000E-03	    8.010000E+02	
    5.114380E-03	    5.858721E-03	    6.140891E-02	   -1.000000E+00	    1.000000E-03	    1.600000E-03	    8.010000E+02	
    5.949415E-03	    5.443930E-03	    5.706262E-02	   -1.000000E+00	    1.000000E-03	    1.600000E-03	    8.010000E+02	
    6.778822E-03	    4.949788E-03	    5.188085E-02	   -1.000000E+00	    1.000000E-03	    1.600000E-03	    8.010000E+02	
    7.573227E-03	    4.388381E-03	    4.598991E-02	   -1.000000E+00	    1.000000E-03	    1.600000E-03	    8.010000E+02	
    8.304487E-03	    3.781775E-03	    3.962177E-02	   -1.000000E+00	    1.000000E-03	    1.600000E-03	    8.010000E+02	
    8.950190E-03	    3.159764E-03	    3.309049E-02	   -1.000000E+00	    1.000000E-03	    1.600000E-03	    8.010000E+02	
    9.497027E-03	    2.555184E-03	    2.674264E-02	   -1.000000E+00	    1.000000E-03	    1.600000E-03	    8.010000E+02	