Title="Fields"
Variables="X""Y""Velocity""Phi""Effective Viscosity""Dynamic Viscosity""Density""Eddy Viscosity""K""Epsilon""S"
Zone I=52 J=52 F=POINT
   -1.214864E-02	    6.022430E-05	    0.000000E+00	    0.000000E+00	    1.000000E-03	    1.000000E-03	    1.000000E+03	    0.000000E+00	    0.000000E+00	    0.000000E+00	    0.000000E+00	
   -1.214840E-02	    7.587059E-05	    0.000000E+00	    0.000000E+00	    1.000000E-03	    1.000000E-03	    1.000000E+03	    0.000000E+00	    0.000000E+00	    0.000000E+00	    0.000000E+00	
   -1.214760E-02	    1.201162E-04	    0.000000E+00	    0.000000E+00	    1.000000E-03	    1.000000E-03	    1.000000E+03	    0.000000E+00	    0.000000E+00	    0.000000E+00	    0.000000E+00	
   -1.214604E-02	    1.887791E-04	    0.000000E+00	    0.000000E+00	    1.000000E-03	    1.000000E-03	    1.000000E+03	    0.000000E+00	    0.000000E+00	    0.000000E+00	    0.000000E+00	
   -1.214292E-02	    2.931943E-04	    0.000000E+00	    0.000000E+00	    1.000000E-03	    1.000000E-03	    1.000000E+03	    0.000000E+00	    0.000000E+00	    0.000000E+00	    0.000000E+00	
   -1.213664E-02	    4.481479E-04	    0.000000E+00	    0.000000E+00	    1.000000E-03	    1.000000E-03	    1.000000E+03	    0.000000E+00	    0.000000E+00	    0.000000E+00	    0.000000E+00	
   -1.212408E-02	    6.717413E-04	    0.000000E+00	    0.000000E+00	    1.000000E-03	    1.000000E-03	    1.000000E+03	    0.000000E+00	    0.000000E+00	    0.000000E+00	    0.000000E+00	
   -1.209956E-02	    9.844691E-04	    0.000000E+00	    0.000000E+00	    1.000000E-03	    1.000000E-03	    1.000000E+03	    0.000000E+00	    0.000000E+00	    0.000000E+00	    0.000000E+00	
   -1.205344E-02	    1.407248E-03	    0.000000E+00	    0.000000E+00	    1.000000E-03	    1.000000E-03	    1.000000E+03	    0.000000E+00	    0.000000E+00	    0.000000E+00	    0.000000E+00	
   -1.197068E-02	    1.958259E-03	    0.000000E+00	    0.000000E+00	    1.000000E-03	    1.000000E-03	    1.000000E+03	    0.000000E+00	    0.000000E+00	    0.000000E+00	    0.000000E+00	
   -1.182998E-02	    2.648730E-03	    0.000000E+00	    0.000000E+00	    1.000000E-03	    1.000000E-03	    1.000000E+03	    0.000000E+00	    0.000000E+00	    0.000000E+00	    0.000000E+00	
   -1.160451E-02	    3.478208E-03	    0.000000E+00	    0.000000E+00	    1.000000E-03	    1.000000E-03	    1.000000E+03	    0.000000E+00	    0.000000E+00	    0.000000E+00	    0.000000E+00	
   -1.126508E-02	    4.430482E-03	    0.000000E+00	    0.000000E+00	    1.000000E-03	    1.000000E-03	    1.000000E+03	    0.000000E+00	    0.000000E+00	    0.000000E+00	    0.000000E+00	
   -1.078595E-02	    5.471869E-03	    0.000000E+00	    0.000000E+00	    1.000000E-03	    1.000000E-03	    1.000000E+03	    0.000000E+00	    0.000000E+00	    0.000000E+00	    0.000000E+00	
   -1.015216E-02	    6.553542E-03	    0.000000E+00	    0.000000E+00	    1.000000E-03	    1.000000E-03	    1.000000E+03	    0.000000E+00	    0.000000E+00	    0.000000E+00	    0.000000E+00	
   -9.365676E-03	    7.618437E-03	    0.000000E+00	    0.000000E+00	    1.000000E-03	    1.000000E-03	    1.000000E+03	    0.000000E+00	    0.000000E+00	    0.000000E+00	    0.000000E+00	
   -8.447592E-03	    8.611236E-03	    0.000000E+00	    0.000000E+00	    1.000000E-03	    1.000000E-03	    1.000000E+03	    0.000000E+00	    0.000000E+00	    0.000000E+00	    0.000000E+00	
   -7.434908E-03	    9.488112E-03	    0.000000E+00	    0.000000E+00	    1.000000E-03	    1.000000E-03	    1.000000E+03	    0.000000E+00	    0.000000E+00	    0.000000E+00	    0.000000E+00	
   -6.373132E-03	    1.022286E-02	    0.000000E+00	    0.000000E+00	    1.000000E-03	    1.000000E-03	    1.000000E+03	    0.000000E+00	    0.000000E+00	    0.000000E+00	    0.000000E+00	
   -5.307702E-03	    1.080785E-02	    0.000000E+00	    0.000000E+00	    1.000000E-03	    1.000000E-03	    1.000000E+03	    0.000000E+00	    0.000000E+00	    0.000000E+00	    0.000000E+00	
   -4.277189E-03	    1.125075E-02	    0.000000E+00	    0.000000E+00	    1.000000E-03	    1.000000E-03	    1.000000E+03	    0.000000E+00	    0.000000E+00	    0.000000E+00	    0.000000E+00	
   -3.309761E-03	    1.156901E-02	    0.000000E+00	    0.000000E+00	    1.000000E-03	    1.000000E-03	    1.000000E+03	    0.000000E+00	    0.000000E+00	    0.000000E+00	    0.000000E+00	
   -2.422724E-03	    1.178450E-02	    0.000000E+00	    0.000000E+00	    1.000000E-03	    1.000000E-03	    1.000000E+03	    0.000000E+00	    0.000000E+00	    0.000000E+00	    0.000000E+00	
   -1.624046E-03	    1.191947E-02	    0.000000E+00	    0.000000E+00	    1.000000E-03	    1.000000E-03	    1.000000E+03	    0.000000E+00	    0.000000E+00	    0.000000E+00	    0.000000E+00	
   -9.147101E-04	    1.199402E-02	    0.000000E+00	    0.000000E+00	    1.000000E-03	    1.000000E-03	    1.000000E+03	    0.000000E+00	    0.000000E+00	    0.000000E+00	    0.000000E+00	
   -2.910617E-04	    1.202501E-02	    0.000000E+00	    0.000000E+00	    1.000000E-03	    1.000000E-03	    1.000000E+03	    0.000000E+00	    0.000000E+00	    0.000000E+00	    0.000000E+00	
    2.910617E-04	    1.202501E-02	    0.000000E+00	    0.000000E+00	    1.000000E-03	    1.000000E-03	    1.000000E+03	    0.000000E+00	    0.000000E+00	    0.000000E+00	    0.000000E+00	
    9.147101E-04	    1.199402E-02	    0.000000E+00	    0.000000E+00	    1.000000E-03	    1.000000E-03	    1.000000E+03	    0.000000E+00	    0.000000E+00	    0.000000E+00	    0.000000E+00	
    1.624046E-03	    1.191947E-02	    0.000000E+00	    0.000000E+00	    1.000000E-03	    1.000000E-03	    1.000000E+03	    0.000000E+00	    0.000000E+00	    0.000000E+00	    0.000000E+00	
    2.422724E-03	    1.178450E-02	    0.000000E+00	    0.000000E+00	    1.000000E-03	    1.000000E-03	    1.000000E+03	    0.000000E+00	    0.000000E+00	    0.000000E+00	    0.000000E+00	
    3.309761E-03	    1.156901E-02	    0.000000E+00	    0.000000E+00	    1.000000E-03	    1.000000E-03	    1.000000E+03	    0.000000E+00	    0.000000E+00	    0.000000E+00	    0.000000E+00	
    4.277189E-03	    1.125075E-02	    0.000000E+00	    0.000000E+00	    1.000000E-03	    1.000000E-03	    1.000000E+03	    0.000000E+00	    0.000000E+00	    0.000000E+00	    0.000000E+00	
    5.307702E-03	    1.080785E-02	    0.000000E+00	    0.000000E+00	    1.000000E-03	    1.000000E-03	    1.000000E+03	    0.000000E+00	    0.000000E+00	    0.000000E+00	    0.000000E+00	
    6.373132E-03	    1.022286E-02	    0.000000E+00	    0.000000E+00	    1.000000E-03	    1.000000E-03	    1.000000E+03	    0.000000E+00	    0.000000E+00	    0.000000E+00	    0.000000E+00	
    7.434908E-03	    9.488112E-03	    0.000000E+00	    0.000000E+00	    1.000000E-03	    1.000000E-03	    1.000000E+03	    0.000000E+00	    0.000000E+00	    0.000000E+00	    0.000000E+00	
    8.447592E-03	    8.611236E-03	    0.000000E+00	    0.000000E+00	    1.000000E-03	    1.000000E-03	    1.000000E+03	    0.000000E+00	    0.000000E+00	    0.000000E+00	    0.000000E+00	
    9.365676E-03	    7.618437E-03	    0.000000E+00	    0.000000E+00	    1.000000E-03	    1.000000E-03	    1.000000E+03	    0.000000E+00	    0.000000E+00	    0.000000E+00	    0.000000E+00	
    1.015216E-02	    6.553542E-03	    0.000000E+00	    0.000000E+00	    1.000000E-03	    1.000000E-03	    1.000000E+03	    0.000000E+00	    0.000000E+00	    0.000000E+00	    0.000000E+00	
    1.078595E-02	    5.471869E-03	    0.000000E+00	    0.000000E+00	    1.000000E-03	    1.000000E-03	    1.000000E+03	    0.000000E+00	    0.000000E+00	    0.000000E+00	    0.000000E+00	
    1.126508E-02	    4.430482E-03	    0.000000E+00	    0.000000E+00	    1.000000E-03	    1.000000E-03	    1.000000E+03	    0.000000E+00	    0.000000E+00	    0.000000E+00	    0.000000E+00	
    1.160451E-02	    3.478208E-03	    0.000000E+00	    0.000000E+00	    1.000000E-03	    1.000000E-03	    1.000000E+03	    0.000000E+00	    0.000000E+00	    0.000000E+00	    0.000000E+00	
    1.182998E-02	    2.648730E-03	    0.000000E+00	    0.000000E+00	    1.000000E-03	    1.000000E-03	    1.000000E+03	    0.000000E+00	    0.000000E+00	    0.000000E+00	    0.000000E+00	
    1.197068E-02	    1.958259E-03	    0.000000E+00	    0.000000E+00	    1.000000E-03	    1.000000E-03	    1.000000E+03	    0.000000E+00	    0.000000E+00	    0.000000E+00	    0.000000E+00	
    1.205344E-02	    1.407248E-03	    0.000000E+00	    0.000000E+00	    1.000000E-03	    1.000000E-03	    1.000000E+03	    0.000000E+00	    0.000000E+00	    0.000000E+00	    0.000000E+00	
    1.209956E-02	    9.844691E-04	    0.000000E+00	    0.000000E+00	    1.000000E-03	    1.000000E-03	    1.000000E+03	    0.000000E+00	    0.000000E+00	    0.000000E+00	    0.000000E+00	
    1.212408E-02	    6.717413E-04	    0.000000E+00	    0.000000E+00	    1.000000E-03	    1.000000E-03	    1.000000E+03	    0.000000E+00	    0.000000E+00	    0.000000E+00	    0.000000E+00	
    1.213664E-02	    4.481479E-04	    0.000000E+00	    0.000000E+00	    1.000000E-03	    1.000000E-03	    1.000000E+03	    0.000000E+00	    0.000000E+00	    0.000000E+00	    0.000000E+00	
    1.214292E-02	    2.931943E-04	    0.000000E+00	    0.000000E+00	    1.000000E-03	    1.000000E-03	    1.000000E+03	    0.000000E+00	    0.000000E+00	    0.000000E+00	    0.000000E+00	
    1.214604E-02	    1.887791E-04	    0.000000E+00	    0.000000E+00	    1.000000E-03	    1.000000E-03	    1.000000E+03	    0.000000E+00	    0.000000E+00	    0.000000E+00	    0.000000E+00	
    1.214760E-02	    1.201162E-04	    0.000000E+00	    0.000000E+00	    1.000000E-03	    1.000000E-03	    1.000000E+03	    0.000000E+00	    0.000000E+00	    0.000000E+00	    0.000000E+00	
    1.214840E-02	    7.587059E-05	    0.000000E+00	    0.000000E+00	    1.000000E-03	    1.000000E-03	    1.000000E+03	    0.000000E+00	    0.000000E+00	    0.000000E+00	    0.000000E+00	
    1.214864E-02	    6.022430E-05	    0.000000E+00	    0.000000E+00	    1.000000E-03	    1.000000E-03	    1.000000E+03	    0.000000E+00	    0.000000E+00	    0.000000E+00	    0.000000E+00	
   -1.214823E-02	    6.021683E-05	    0.000000E+00	    0.000000E+00	    1.000000E-03	    1.000000E-03	    1.000000E+03	    0.000000E+00	    0.000000E+00	    0.000000E+00	    0.000000E+00	
   -1.214788E-02	    7.586052E-05	    1.076953E-04	   -1.000000E+00	    1.000741E-03	    1.000000E-03	    1.000000E+03	    3.370444E-06	    8.559053E-04	    1.956171E+01	    4.364519E+04	
   -1.214679E-02	    1.200973E-04	    3.354419E-04	   -1.000000E+00	    1.000813E-03	    1.000000E-03	    1.000000E+03	    3.695370E-06	    4.105083E-04	    4.104200E+00	    1.703957E+05	
   -1.214476E-02	    1.887422E-04	    6.388008E-04	   -1.000000E+00	    1.001463E-03	    1.000000E-03	    1.000000E+03	    6.650368E-06	    5.382810E-04	    3.921163E+00	    2.499947E+05	
   -1.214094E-02	    2.931200E-04	    1.067517E-03	   -1.000000E+00	    1.002655E-03	    1.000000E-03	    1.000000E+03	    1.206612E-05	    7.346399E-04	    4.025540E+00	    2.890455E+05	
   -1.213361E-02	    4.479957E-04	    1.674159E-03	   -1.000000E+00	    1.004576E-03	    1.000000E-03	    1.000000E+03	    2.080220E-05	    9.346820E-04	    3.779732E+00	    3.036057E+05	
   -1.211955E-02	    6.714295E-04	    2.524737E-03	   -1.000000E+00	    1.007555E-03	    1.000000E-03	    1.000000E+03	    3.434250E-05	    1.133971E-03	    3.369882E+00	    3.061976E+05	
   -1.209293E-02	    9.838410E-04	    3.694415E-03	   -1.000000E+00	    1.011989E-03	    1.000000E-03	    1.000000E+03	    5.449374E-05	    1.329557E-03	    2.919507E+00	    3.034491E+05	
   -1.204401E-02	    1.406019E-03	    5.257762E-03	   -1.000000E+00	    1.018296E-03	    1.000000E-03	    1.000000E+03	    8.316470E-05	    1.515852E-03	    2.486665E+00	    2.979211E+05	
   -1.195765E-02	    1.955950E-03	    7.276580E-03	   -1.000000E+00	    1.026857E-03	    1.000000E-03	    1.000000E+03	    1.220753E-04	    1.687207E-03	    2.098706E+00	    2.902401E+05	
   -1.181256E-02	    2.644593E-03	    9.785047E-03	   -1.000000E+00	    1.037927E-03	    1.000000E-03	    1.000000E+03	    1.723972E-04	    1.839944E-03	    1.767345E+00	    2.803704E+05	
   -1.158209E-02	    3.471175E-03	    1.277460E-02	   -1.000000E+00	    1.051565E-03	    1.000000E-03	    1.000000E+03	    2.343871E-04	    1.973222E-03	    1.495067E+00	    2.684824E+05	
   -1.123737E-02	    4.419185E-03	    1.618159E-02	   -1.000000E+00	    1.067554E-03	    1.000000E-03	    1.000000E+03	    3.070619E-04	    2.088331E-03	    1.278248E+00	    2.553280E+05	
   -1.075321E-02	    5.454763E-03	    1.988287E-02	   -1.000000E+00	    1.085353E-03	    1.000000E-03	    1.000000E+03	    3.879689E-04	    2.186869E-03	    1.109408E+00	    2.420111E+05	
   -1.011527E-02	    6.529136E-03	    2.370509E-02	   -1.000000E+00	    1.104117E-03	    1.000000E-03	    1.000000E+03	    4.732584E-04	    2.269894E-03	    9.798403E-01	    2.295465E+05	
   -9.326135E-03	    7.585587E-03	    2.744911E-02	   -1.000000E+00	    1.122806E-03	    1.000000E-03	    1.000000E+03	    5.582113E-04	    2.338207E-03	    8.814743E-01	    2.186008E+05	
   -8.407302E-03	    8.569391E-03	    3.092440E-02	   -1.000000E+00	    1.140384E-03	    1.000000E-03	    1.000000E+03	    6.381071E-04	    2.392833E-03	    8.075577E-01	    2.094686E+05	
   -7.395856E-03	    9.437422E-03	    3.398215E-02	   -1.000000E+00	    1.156005E-03	    1.000000E-03	    1.000000E+03	    7.091121E-04	    2.435215E-03	    7.526658E-01	    2.021632E+05	
   -6.337080E-03	    1.016411E-02	    3.653574E-02	   -1.000000E+00	    1.169149E-03	    1.000000E-03	    1.000000E+03	    7.688574E-04	    2.467123E-03	    7.124893E-01	    1.965278E+05	
   -5.275969E-03	    1.074227E-02	    3.856308E-02	   -1.000000E+00	    1.179642E-03	    1.000000E-03	    1.000000E+03	    8.165545E-04	    2.490437E-03	    6.836102E-01	    1.923247E+05	
   -4.250575E-03	    1.117974E-02	    4.009425E-02	   -1.000000E+00	    1.187599E-03	    1.000000E-03	    1.000000E+03	    8.527247E-04	    2.506947E-03	    6.633211E-01	    1.892944E+05	
   -3.288589E-03	    1.149396E-02	    4.119221E-02	   -1.000000E+00	    1.193322E-03	    1.000000E-03	    1.000000E+03	    8.787384E-04	    2.518222E-03	    6.494877E-01	    1.871905E+05	
   -2.406939E-03	    1.170666E-02	    4.193423E-02	   -1.000000E+00	    1.197199E-03	    1.000000E-03	    1.000000E+03	    8.963579E-04	    2.525569E-03	    6.404414E-01	    1.857966E+05	
   -1.613344E-03	    1.183985E-02	    4.239794E-02	   -1.000000E+00	    1.199626E-03	    1.000000E-03	    1.000000E+03	    9.073901E-04	    2.530028E-03	    6.348910E-01	    1.849325E+05	
   -9.086451E-04	    1.191341E-02	    4.265313E-02	   -1.000000E+00	    1.200965E-03	    1.000000E-03	    1.000000E+03	    9.134759E-04	    2.532409E-03	    6.318486E-01	    1.844532E+05	
   -2.891269E-04	    1.194400E-02	    4.275798E-02	   -1.000000E+00	    1.201519E-03	    1.000000E-03	    1.000000E+03	    9.159937E-04	    2.533322E-03	    6.305664E-01	    1.842453E+05	
    2.891269E-04	    1.194400E-02	    4.275798E-02	   -1.000000E+00	    1.201519E-03	    1.000000E-03	    1.000000E+03	    9.159937E-04	    2.533322E-03	    6.305664E-01	    1.842453E+05	
    9.086451E-04	    1.191341E-02	    4.265313E-02	   -1.000000E+00	    1.200965E-03	    1.000000E-03	    1.000000E+03	    9.134759E-04	    2.532409E-03	    6.318486E-01	    1.844532E+05	
    1.613344E-03	    1.183985E-02	    4.239794E-02	   -1.000000E+00	    1.199626E-03	    1.000000E-03	    1.000000E+03	    9.073901E-04	    2.530028E-03	    6.348910E-01	    1.849325E+05	
    2.406939E-03	    1.170666E-02	    4.193423E-02	   -1.000000E+00	    1.197199E-03	    1.000000E-03	    1.000000E+03	    8.963579E-04	    2.525569E-03	    6.404414E-01	    1.857966E+05	
    3.288589E-03	    1.149396E-02	    4.119221E-02	   -1.000000E+00	    1.193322E-03	    1.000000E-03	    1.000000E+03	    8.787384E-04	    2.518222E-03	    6.494877E-01	    1.871905E+05	
    4.250575E-03	    1.117974E-02	    4.009425E-02	   -1.000000E+00	    1.187599E-03	    1.000000E-03	    1.000000E+03	    8.527247E-04	    2.506947E-03	    6.633211E-01	    1.892944E+05	
    5.275969E-03	    1.074227E-02	    3.856308E-02	   -1.000000E+00	    1.179642E-03	    1.000000E-03	    1.000000E+03	    8.165545E-04	    2.490437E-03	    6.836102E-01	    1.923247E+05	
    6.337080E-03	    1.016411E-02	    3.653574E-02	   -1.000000E+00	    1.169149E-03	    1.000000E-03	    1.000000E+03	    7.688574E-04	    2.467123E-03	    7.124893E-01	    1.965278E+05	
    7.395856E-03	    9.437422E-03	    3.398215E-02	   -1.000000E+00	    1.156005E-03	    1.000000E-03	    1.000000E+03	    7.091121E-04	    2.435215E-03	    7.526658E-01	    2.021632E+05	
    8.407302E-03	    8.569391E-03	    3.092440E-02	   -1.000000E+00	    1.140384E-03	    1.000000E-03	    1.000000E+03	    6.381071E-04	    2.392833E-03	    8.075577E-01	    2.094686E+05	
    9.326135E-03	    7.585587E-03	    2.744911E-02	   -1.000000E+00	    1.122806E-03	    1.000000E-03	    1.000000E+03	    5.582113E-04	    2.338207E-03	    8.814743E-01	    2.186008E+05	
    1.011527E-02	    6.529136E-03	    2.370509E-02	   -1.000000E+00	    1.104117E-03	    1.000000E-03	    1.000000E+03	    4.732584E-04	    2.269894E-03	    9.798403E-01	    2.295465E+05	
    1.075321E-02	    5.454763E-03	    1.988287E-02	   -1.000000E+00	    1.085353E-03	    1.000000E-03	    1.000000E+03	    3.879689E-04	    2.186869E-03	    1.109408E+00	    2.420111E+05	
    1.123737E-02	    4.419185E-03	    1.618159E-02	   -1.000000E+00	    1.067554E-03	    1.000000E-03	    1.000000E+03	    3.070619E-04	    2.088331E-03	    1.278248E+00	    2.553280E+05	
    1.158209E-02	    3.471175E-03	    1.277460E-02	   -1.000000E+00	    1.051565E-03	    1.000000E-03	    1.000000E+03	    2.343871E-04	    1.973222E-03	    1.495067E+00	    2.684824E+05	
    1.181256E-02	    2.644593E-03	    9.785047E-03	   -1.000000E+00	    1.037927E-03	    1.000000E-03	    1.000000E+03	    1.723972E-04	    1.839944E-03	    1.767345E+00	    2.803704E+05	
    1.195765E-02	    1.955950E-03	    7.276580E-03	   -1.000000E+00	    1.026857E-03	    1.000000E-03	    1.000000E+03	    1.220753E-04	    1.687207E-03	    2.098706E+00	    2.902401E+05	
    1.204401E-02	    1.406019E-03	    5.257762E-03	   -1.000000E+00	    1.018296E-03	    1.000000E-03	    1.000000E+03	    8.316470E-05	    1.515852E-03	    2.486665E+00	    2.979211E+05	
    1.209293E-02	    9.838410E-04	    3.694415E-03	   -1.000000E+00	    1.011989E-03	    1.000000E-03	    1.000000E+03	    5.449374E-05	    1.329557E-03	    2.919507E+00	    3.034491E+05	
    1.211955E-02	    6.714295E-04	    2.524737E-03	   -1.000000E+00	    1.007555E-03	    1.000000E-03	    1.000000E+03	    3.434250E-05	    1.133971E-03	    3.369882E+00	    3.061976E+05	
    1.213361E-02	    4.479957E-04	    1.674159E-03	   -1.000000E+00	    1.004576E-03	    1.000000E-03	    1.000000E+03	    2.080220E-05	    9.346820E-04	    3.779732E+00	    3.036057E+05	
    1.214094E-02	    2.931200E-04	    1.067517E-03	   -1.000000E+00	    1.002655E-03	    1.000000E-03	    1.000000E+03	    1.206612E-05	    7.346399E-04	    4.025540E+00	    2.890455E+05	
    1.214476E-02	    1.887422E-04	    6.388008E-04	   -1.000000E+00	    1.001463E-03	    1.000000E-03	    1.000000E+03	    6.650368E-06	    5.382810E-04	    3.921163E+00	    2.499947E+05	
    1.214679E-02	    1.200973E-04	    3.354419E-04	   -1.000000E+00	    1.000813E-03	    1.000000E-03	    1.000000E+03	    3.695370E-06	    4.105083E-04	    4.104200E+00	    1.703957E+05	
    1.214788E-02	    7.586052E-05	    1.076953E-04	   -1.000000E+00	    1.000741E-03	    1.000000E-03	    1.000000E+03	    3.370444E-06	    8.559053E-04	    1.956171E+01	    4.364519E+04	
    1.214823E-02	    6.021683E-05	    0.000000E+00	    0.000000E+00	    1.000000E-03	    1.000000E-03	    1.000000E+03	    0.000000E+00	    0.000000E+00	    0.000000E+00	    0.000000E+00	
   -1.214729E-02	    6.018900E-05	    0.000000E+00	    0.000000E+00	    1.000000E-03	    1.000000E-03	    1.000000E+03	    0.000000E+00	    0.000000E+00	    0.000000E+00	    0.000000E+00	
   -1.214670E-02	    7.582392E-05	    3.543005E-04	   -1.000000E+00	    1.022675E-03	    1.000000E-03	    1.000000E+03	    1.030685E-04	    8.604856E-04	    6.465525E-01	    4.302637E+04	
   -1.214491E-02	    1.200325E-04	    1.110779E-03	   -1.000000E+00	    1.000865E-03	    1.000000E-03	    1.000000E+03	    3.932884E-06	    3.805474E-04	    3.313973E+00	    1.702992E+05	
   -1.214181E-02	    1.886237E-04	    2.114213E-03	   -1.000000E+00	    1.001525E-03	    1.000000E-03	    1.000000E+03	    6.932503E-06	    4.765531E-04	    2.948323E+00	    2.495103E+05	
   -1.213636E-02	    2.928967E-04	    3.529578E-03	   -1.000000E+00	    1.002845E-03	    1.000000E-03	    1.000000E+03	    1.293030E-05	    6.302492E-04	    2.764768E+00	    2.879413E+05	
   -1.212662E-02	    4.475651E-04	    5.526087E-03	   -1.000000E+00	    1.005161E-03	    1.000000E-03	    1.000000E+03	    2.345893E-05	    7.821749E-04	    2.347157E+00	    3.013972E+05	
   -1.210908E-02	    6.705914E-04	    8.311005E-03	   -1.000000E+00	    1.009255E-03	    1.000000E-03	    1.000000E+03	    4.207028E-05	    9.374157E-04	    1.879886E+00	    3.018611E+05	
   -1.207763E-02	    9.822180E-04	    1.210807E-02	   -1.000000E+00	    1.016635E-03	    1.000000E-03	    1.000000E+03	    7.561416E-05	    1.109211E-03	    1.464426E+00	    2.948170E+05	
   -1.202224E-02	    1.402938E-03	    1.711084E-02	   -1.000000E+00	    1.030107E-03	    1.000000E-03	    1.000000E+03	    1.368514E-04	    1.313156E-03	    1.134033E+00	    2.810611E+05	
   -1.192760E-02	    1.950285E-03	    2.341922E-02	   -1.000000E+00	    1.054338E-03	    1.000000E-03	    1.000000E+03	    2.469912E-04	    1.562529E-03	    8.896464E-01	    2.601578E+05	
   -1.177247E-02	    2.634602E-03	    3.097001E-02	   -1.000000E+00	    1.095325E-03	    1.000000E-03	    1.000000E+03	    4.332943E-04	    1.859289E-03	    7.180477E-01	    2.334517E+05	
   -1.153055E-02	    3.454397E-03	    3.950744E-02	   -1.000000E+00	    1.157767E-03	    1.000000E-03	    1.000000E+03	    7.171243E-04	    2.188762E-03	    6.012360E-01	    2.042187E+05	
   -1.117378E-02	    4.392487E-03	    4.862705E-02	   -1.000000E+00	    1.242029E-03	    1.000000E-03	    1.000000E+03	    1.100132E-03	    2.526455E-03	    5.221805E-01	    1.759269E+05	
   -1.067819E-02	    5.414629E-03	    5.786142E-02	   -1.000000E+00	    1.343642E-03	    1.000000E-03	    1.000000E+03	    1.562009E-03	    2.849239E-03	    4.677532E-01	    1.509284E+05	
   -1.003092E-02	    6.472204E-03	    6.675813E-02	   -1.000000E+00	    1.455107E-03	    1.000000E-03	    1.000000E+03	    2.068669E-03	    3.140829E-03	    4.291807E-01	    1.302197E+05	
   -9.235913E-03	    7.509312E-03	    7.493525E-02	   -1.000000E+00	    1.568026E-03	    1.000000E-03	    1.000000E+03	    2.581936E-03	    3.392072E-03	    4.010765E-01	    1.138248E+05	
   -8.315535E-03	    8.472593E-03	    8.211801E-02	   -1.000000E+00	    1.674765E-03	    1.000000E-03	    1.000000E+03	    3.067115E-03	    3.599705E-03	    3.802300E-01	    1.012644E+05	
   -7.307050E-03	    9.320514E-03	    8.815615E-02	   -1.000000E+00	    1.769585E-03	    1.000000E-03	    1.000000E+03	    3.498114E-03	    3.764912E-03	    3.646852E-01	    9.188282E+04	
   -6.255204E-03	    1.002892E-02	    9.301959E-02	   -1.000000E+00	    1.849159E-03	    1.000000E-03	    1.000000E+03	    3.859813E-03	    3.891814E-03	    3.531672E-01	    8.502651E+04	
   -5.203978E-03	    1.059161E-02	    9.677544E-02	   -1.000000E+00	    1.912487E-03	    1.000000E-03	    1.000000E+03	    4.147667E-03	    3.986055E-03	    3.447665E-01	    8.012098E+04	
   -4.190247E-03	    1.101682E-02	    9.955469E-02	   -1.000000E+00	    1.960373E-03	    1.000000E-03	    1.000000E+03	    4.365331E-03	    4.053670E-03	    3.387834E-01	    7.669316E+04	
   -3.240621E-03	    1.132195E-02	    1.015188E-01	   -1.000000E+00	    1.994733E-03	    1.000000E-03	    1.000000E+03	    4.521516E-03	    4.100347E-03	    3.346568E-01	    7.436764E+04	
   -2.371191E-03	    1.152836E-02	    1.028329E-01	   -1.000000E+00	    2.017968E-03	    1.000000E-03	    1.000000E+03	    4.627126E-03	    4.131042E-03	    3.319330E-01	    7.285318E+04	
   -1.589115E-03	    1.165755E-02	    1.036487E-01	   -1.000000E+00	    2.032500E-03	    1.000000E-03	    1.000000E+03	    4.693181E-03	    4.149855E-03	    3.302486E-01	    7.192718E+04	
   -8.949153E-04	    1.172889E-02	    1.040956E-01	   -1.000000E+00	    2.040512E-03	    1.000000E-03	    1.000000E+03	    4.729600E-03	    4.160046E-03	    3.293173E-01	    7.142138E+04	
   -2.847470E-04	    1.175854E-02	    1.042784E-01	   -1.000000E+00	    2.043824E-03	    1.000000E-03	    1.000000E+03	    4.744653E-03	    4.164144E-03	    3.289194E-01	    7.120984E+04	
    2.847470E-04	    1.175854E-02	    1.042784E-01	   -1.000000E+00	    2.043824E-03	    1.000000E-03	    1.000000E+03	    4.744653E-03	    4.164144E-03	    3.289194E-01	    7.120984E+04	
    8.949153E-04	    1.172889E-02	    1.040956E-01	   -1.000000E+00	    2.040512E-03	    1.000000E-03	    1.000000E+03	    4.729600E-03	    4.160046E-03	    3.293173E-01	    7.142138E+04	
    1.589115E-03	    1.165755E-02	    1.036487E-01	   -1.000000E+00	    2.032500E-03	    1.000000E-03	    1.000000E+03	    4.693181E-03	    4.149855E-03	    3.302486E-01	    7.192718E+04	
    2.371191E-03	    1.152836E-02	    1.028329E-01	   -1.000000E+00	    2.017968E-03	    1.000000E-03	    1.000000E+03	    4.627126E-03	    4.131042E-03	    3.319330E-01	    7.285318E+04	
    3.240621E-03	    1.132195E-02	    1.015188E-01	   -1.000000E+00	    1.994733E-03	    1.000000E-03	    1.000000E+03	    4.521516E-03	    4.100347E-03	    3.346568E-01	    7.436764E+04	
    4.190247E-03	    1.101682E-02	    9.955469E-02	   -1.000000E+00	    1.960373E-03	    1.000000E-03	    1.000000E+03	    4.365331E-03	    4.053670E-03	    3.387834E-01	    7.669316E+04	
    5.203978E-03	    1.059161E-02	    9.677544E-02	   -1.000000E+00	    1.912487E-03	    1.000000E-03	    1.000000E+03	    4.147667E-03	    3.986055E-03	    3.447665E-01	    8.012098E+04	
    6.255204E-03	    1.002892E-02	    9.301959E-02	   -1.000000E+00	    1.849159E-03	    1.000000E-03	    1.000000E+03	    3.859813E-03	    3.891814E-03	    3.531672E-01	    8.502651E+04	
    7.307050E-03	    9.320514E-03	    8.815615E-02	   -1.000000E+00	    1.769585E-03	    1.000000E-03	    1.000000E+03	    3.498114E-03	    3.764912E-03	    3.646852E-01	    9.188282E+04	
    8.315535E-03	    8.472593E-03	    8.211801E-02	   -1.000000E+00	    1.674765E-03	    1.000000E-03	    1.000000E+03	    3.067115E-03	    3.599705E-03	    3.802300E-01	    1.012644E+05	
    9.235913E-03	    7.509312E-03	    7.493525E-02	   -1.000000E+00	    1.568026E-03	    1.000000E-03	    1.000000E+03	    2.581936E-03	    3.392072E-03	    4.010765E-01	    1.138248E+05	
    1.003092E-02	    6.472204E-03	    6.675813E-02	   -1.000000E+00	    1.455107E-03	    1.000000E-03	    1.000000E+03	    2.068669E-03	    3.140829E-03	    4.291807E-01	    1.302197E+05	
    1.067819E-02	    5.414629E-03	    5.786142E-02	   -1.000000E+00	    1.343642E-03	    1.000000E-03	    1.000000E+03	    1.562009E-03	    2.849239E-03	    4.677532E-01	    1.509284E+05	
    1.117378E-02	    4.392487E-03	    4.862705E-02	   -1.000000E+00	    1.242029E-03	    1.000000E-03	    1.000000E+03	    1.100132E-03	    2.526455E-03	    5.221805E-01	    1.759269E+05	
    1.153055E-02	    3.454397E-03	    3.950744E-02	   -1.000000E+00	    1.157767E-03	    1.000000E-03	    1.000000E+03	    7.171243E-04	    2.188762E-03	    6.012360E-01	    2.042187E+05	
    1.177247E-02	    2.634602E-03	    3.097001E-02	   -1.000000E+00	    1.095325E-03	    1.000000E-03	    1.000000E+03	    4.332943E-04	    1.859289E-03	    7.180477E-01	    2.334517E+05	
    1.192760E-02	    1.950285E-03	    2.341922E-02	   -1.000000E+00	    1.054338E-03	    1.000000E-03	    1.000000E+03	    2.469912E-04	    1.562529E-03	    8.896464E-01	    2.601578E+05	
    1.202224E-02	    1.402938E-03	    1.711084E-02	   -1.000000E+00	    1.030107E-03	    1.000000E-03	    1.000000E+03	    1.368514E-04	    1.313156E-03	    1.134033E+00	    2.810611E+05	
    1.207763E-02	    9.822180E-04	    1.210807E-02	   -1.000000E+00	    1.016635E-03	    1.000000E-03	    1.000000E+03	    7.561416E-05	    1.109211E-03	    1.464426E+00	    2.948170E+05	
    1.210908E-02	    6.705914E-04	    8.311005E-03	   -1.000000E+00	    1.009255E-03	    1.000000E-03	    1.000000E+03	    4.207028E-05	    9.374157E-04	    1.879886E+00	    3.018611E+05	
    1.212662E-02	    4.475651E-04	    5.526087E-03	   -1.000000E+00	    1.005161E-03	    1.000000E-03	    1.000000E+03	    2.345893E-05	    7.821749E-04	    2.347157E+00	    3.013972E+05	
    1.213636E-02	    2.928967E-04	    3.529578E-03	   -1.000000E+00	    1.002845E-03	    1.000000E-03	    1.000000E+03	    1.293030E-05	    6.302492E-04	    2.764768E+00	    2.879413E+05	
    1.214181E-02	    1.886237E-04	    2.114213E-03	   -1.000000E+00	    1.001525E-03	    1.000000E-03	    1.000000E+03	    6.932503E-06	    4.765531E-04	    2.948323E+00	    2.495103E+05	
    1.214491E-02	    1.200325E-04	    1.110779E-03	   -1.000000E+00	    1.000865E-03	    1.000000E-03	    1.000000E+03	    3.932884E-06	    3.805474E-04	    3.313973E+00	    1.702992E+05	
    1.214670E-02	    7.582392E-05	    3.543005E-04	   -1.000000E+00	    1.022675E-03	    1.000000E-03	    1.000000E+03	    1.030685E-04	    8.604856E-04	    6.465525E-01	    4.302637E+04	
    1.214729E-02	    6.018900E-05	    0.000000E+00	    0.000000E+00	    1.000000E-03	    1.000000E-03	    1.000000E+03	    0.000000E+00	    0.000000E+00	    0.000000E+00	    0.000000E+00	
   -1.214606E-02	    6.013027E-05	    0.000000E+00	    0.000000E+00	    1.000000E-03	    1.000000E-03	    1.000000E+03	    0.000000E+00	    0.000000E+00	    0.000000E+00	    0.000000E+00	
   -1.214514E-02	    7.574794E-05	    6.730243E-04	   -1.000000E+00	    1.022772E-03	    1.000000E-03	    1.000000E+03	    1.035106E-04	    8.680821E-04	    6.552083E-01	    4.356742E+04	