Title="Fields"
Variables="X""Y""Velocity""Phi""Effective Viscosity""Dynamic Viscosity""Density""Eddy Viscosity""K""Omega""S""F1SST""distance""GEN"
Zone I=52 J=52 F=POINT
   -1.055408E-02	    4.533769E-05	    0.000000E+00	    0.000000E+00	    1.000000E-03	    1.000000E-03	    1.000000E+03	    0.000000E+00	    0.000000E+00	    4.466249E+08	    0.000000E+00	    1.000000E+00	    0.000000E+00	    0.000000E+00	
   -1.056081E-02	    5.715400E-05	    0.000000E+00	    0.000000E+00	    1.000000E-03	    1.000000E-03	    1.000000E+03	    0.000000E+00	    0.000000E+00	    4.466249E+08	    0.000000E+00	    1.000000E+00	    0.000000E+00	    0.000000E+00	
   -1.057979E-02	    9.065323E-05	    0.000000E+00	    0.000000E+00	    1.000000E-03	    1.000000E-03	    1.000000E+03	    0.000000E+00	    0.000000E+00	    1.775343E+08	    0.000000E+00	    1.000000E+00	    0.000000E+00	    0.000000E+00	
   -1.060912E-02	    1.428873E-04	    0.000000E+00	    0.000000E+00	    1.000000E-03	    1.000000E-03	    1.000000E+03	    0.000000E+00	    0.000000E+00	    7.146295E+07	    0.000000E+00	    1.000000E+00	    0.000000E+00	    0.000000E+00	
   -1.065339E-02	    2.229027E-04	    0.000000E+00	    0.000000E+00	    1.000000E-03	    1.000000E-03	    1.000000E+03	    0.000000E+00	    0.000000E+00	    2.936756E+07	    0.000000E+00	    1.000000E+00	    0.000000E+00	    0.000000E+00	
   -1.071835E-02	    3.429620E-04	    0.000000E+00	    0.000000E+00	    1.000000E-03	    1.000000E-03	    1.000000E+03	    0.000000E+00	    0.000000E+00	    1.240656E+07	    0.000000E+00	    1.000000E+00	    0.000000E+00	    0.000000E+00	
   -1.081050E-02	    5.190321E-04	    0.000000E+00	    0.000000E+00	    1.000000E-03	    1.000000E-03	    1.000000E+03	    0.000000E+00	    0.000000E+00	    5.417776E+06	    0.000000E+00	    1.000000E+00	    0.000000E+00	    0.000000E+00	
   -1.093613E-02	    7.710651E-04	    0.000000E+00	    0.000000E+00	    1.000000E-03	    1.000000E-03	    1.000000E+03	    0.000000E+00	    0.000000E+00	    2.455398E+06	    0.000000E+00	    1.000000E+00	    0.000000E+00	    0.000000E+00	
   -1.109958E-02	    1.122951E-03	    0.000000E+00	    0.000000E+00	    1.000000E-03	    1.000000E-03	    1.000000E+03	    0.000000E+00	    0.000000E+00	    1.158015E+06	    0.000000E+00	    1.000000E+00	    0.000000E+00	    0.000000E+00	
   -1.130069E-02	    1.601959E-03	    0.000000E+00	    0.000000E+00	    1.000000E-03	    1.000000E-03	    1.000000E+03	    0.000000E+00	    0.000000E+00	    5.692640E+05	    0.000000E+00	    1.000000E+00	    0.000000E+00	    0.000000E+00	
   -1.153139E-02	    2.237333E-03	    0.000000E+00	    0.000000E+00	    1.000000E-03	    1.000000E-03	    1.000000E+03	    0.000000E+00	    0.000000E+00	    2.920089E+05	    0.000000E+00	    1.000000E+00	    0.000000E+00	    0.000000E+00	
   -1.177195E-02	    3.057542E-03	    0.000000E+00	    0.000000E+00	    1.000000E-03	    1.000000E-03	    1.000000E+03	    0.000000E+00	    0.000000E+00	    1.564699E+05	    0.000000E+00	    1.000000E+00	    0.000000E+00	    0.000000E+00	
   -1.198770E-02	    4.085523E-03	    0.000000E+00	    0.000000E+00	    1.000000E-03	    1.000000E-03	    1.000000E+03	    0.000000E+00	    0.000000E+00	    8.772070E+04	    0.000000E+00	    1.000000E+00	    0.000000E+00	    0.000000E+00	
   -1.212786E-02	    5.331585E-03	    0.000000E+00	    0.000000E+00	    1.000000E-03	    1.000000E-03	    1.000000E+03	    0.000000E+00	    0.000000E+00	    5.157754E+04	    0.000000E+00	    1.000000E+00	    0.000000E+00	    0.000000E+00	
   -1.212866E-02	    6.784619E-03	    0.000000E+00	    0.000000E+00	    1.000000E-03	    1.000000E-03	    1.000000E+03	    0.000000E+00	    0.000000E+00	    3.191286E+04	    0.000000E+00	    1.000000E+00	    0.000000E+00	    0.000000E+00	
   -1.192266E-02	    8.404173E-03	    0.000000E+00	    0.000000E+00	    1.000000E-03	    1.000000E-03	    1.000000E+03	    0.000000E+00	    0.000000E+00	    2.086036E+04	    0.000000E+00	    1.000000E+00	    0.000000E+00	    0.000000E+00	
   -1.145406E-02	    1.011782E-02	    0.000000E+00	    0.000000E+00	    1.000000E-03	    1.000000E-03	    1.000000E+03	    0.000000E+00	    0.000000E+00	    1.446107E+04	    0.000000E+00	    1.000000E+00	    0.000000E+00	    0.000000E+00	
   -1.069602E-02	    1.182828E-02	    0.000000E+00	    0.000000E+00	    1.000000E-03	    1.000000E-03	    1.000000E+03	    0.000000E+00	    0.000000E+00	    1.065727E+04	    0.000000E+00	    1.000000E+00	    0.000000E+00	    0.000000E+00	
   -9.662495E-03	    1.343085E-02	    0.000000E+00	    0.000000E+00	    1.000000E-03	    1.000000E-03	    1.000000E+03	    0.000000E+00	    0.000000E+00	    8.344433E+03	    0.000000E+00	    1.000000E+00	    0.000000E+00	    0.000000E+00	
   -8.407828E-03	    1.483583E-02	    0.000000E+00	    0.000000E+00	    1.000000E-03	    1.000000E-03	    1.000000E+03	    0.000000E+00	    0.000000E+00	    6.912512E+03	    0.000000E+00	    1.000000E+00	    0.000000E+00	    0.000000E+00	
   -7.013390E-03	    1.598624E-02	    0.000000E+00	    0.000000E+00	    1.000000E-03	    1.000000E-03	    1.000000E+03	    0.000000E+00	    0.000000E+00	    6.016190E+03	    0.000000E+00	    1.000000E+00	    0.000000E+00	    0.000000E+00	
   -5.567601E-03	    1.686408E-02	    0.000000E+00	    0.000000E+00	    1.000000E-03	    1.000000E-03	    1.000000E+03	    0.000000E+00	    0.000000E+00	    5.452037E+03	    0.000000E+00	    1.000000E+00	    0.000000E+00	    0.000000E+00	
   -4.148175E-03	    1.748475E-02	    0.000000E+00	    0.000000E+00	    1.000000E-03	    1.000000E-03	    1.000000E+03	    0.000000E+00	    0.000000E+00	    5.104413E+03	    0.000000E+00	    1.000000E+00	    0.000000E+00	    0.000000E+00	
   -2.812113E-03	    1.788489E-02	    0.000000E+00	    0.000000E+00	    1.000000E-03	    1.000000E-03	    1.000000E+03	    0.000000E+00	    0.000000E+00	    4.899613E+03	    0.000000E+00	    1.000000E+00	    0.000000E+00	    0.000000E+00	
   -1.593814E-03	    1.810981E-02	    0.000000E+00	    0.000000E+00	    1.000000E-03	    1.000000E-03	    1.000000E+03	    0.000000E+00	    0.000000E+00	    4.790518E+03	    0.000000E+00	    1.000000E+00	    0.000000E+00	    0.000000E+00	
   -5.084814E-04	    1.820416E-02	    0.000000E+00	    0.000000E+00	    1.000000E-03	    1.000000E-03	    1.000000E+03	    0.000000E+00	    0.000000E+00	    4.745962E+03	    0.000000E+00	    1.000000E+00	    0.000000E+00	    0.000000E+00	
    5.084814E-04	    1.820416E-02	    0.000000E+00	    0.000000E+00	    1.000000E-03	    1.000000E-03	    1.000000E+03	    0.000000E+00	    0.000000E+00	    4.745962E+03	    0.000000E+00	    1.000000E+00	    0.000000E+00	    0.000000E+00	
    1.593814E-03	    1.810981E-02	    0.000000E+00	    0.000000E+00	    1.000000E-03	    1.000000E-03	    1.000000E+03	    0.000000E+00	    0.000000E+00	    4.790518E+03	    0.000000E+00	    1.000000E+00	    0.000000E+00	    0.000000E+00	
    2.812113E-03	    1.788489E-02	    0.000000E+00	    0.000000E+00	    1.000000E-03	    1.000000E-03	    1.000000E+03	    0.000000E+00	    0.000000E+00	    4.899613E+03	    0.000000E+00	    1.000000E+00	    0.000000E+00	    0.000000E+00	
    4.148175E-03	    1.748475E-02	    0.000000E+00	    0.000000E+00	    1.000000E-03	    1.000000E-03	    1.000000E+03	    0.000000E+00	    0.000000E+00	    5.104413E+03	    0.000000E+00	    1.000000E+00	    0.000000E+00	    0.000000E+00	
    5.567601E-03	    1.686408E-02	    0.000000E+00	    0.000000E+00	    1.000000E-03	    1.000000E-03	    1.000000E+03	    0.000000E+00	    0.000000E+00	    5.452037E+03	    0.000000E+00	    1.000000E+00	    0.000000E+00	    0.000000E+00	
    7.013390E-03	    1.598624E-02	    0.000000E+00	    0.000000E+00	    1.000000E-03	    1.000000E-03	    1.000000E+03	    0.000000E+00	    0.000000E+00	    6.016190E+03	    0.000000E+00	    1.000000E+00	    0.000000E+00	    0.000000E+00	
    8.407828E-03	    1.483583E-02	    0.000000E+00	    0.000000E+00	    1.000000E-03	    1.000000E-03	    1.000000E+03	    0.000000E+00	    0.000000E+00	    6.912512E+03	    0.000000E+00	    1.000000E+00	    0.000000E+00	    0.000000E+00	
    9.662495E-03	    1.343085E-02	    0.000000E+00	    0.000000E+00	    1.000000E-03	    1.000000E-03	    1.000000E+03	    0.000000E+00	    0.000000E+00	    8.344433E+03	    0.000000E+00	    1.000000E+00	    0.000000E+00	    0.000000E+00	
    1.069602E-02	    1.182828E-02	    0.000000E+00	    0.000000E+00	    1.000000E-03	    1.000000E-03	    1.000000E+03	    0.000000E+00	    0.000000E+00	    1.065727E+04	    0.000000E+00	    1.000000E+00	    0.000000E+00	    0.000000E+00	
    1.145406E-02	    1.011782E-02	    0.000000E+00	    0.000000E+00	    1.000000E-03	    1.000000E-03	    1.000000E+03	    0.000000E+00	    0.000000E+00	    1.446107E+04	    0.000000E+00	    1.000000E+00	    0.000000E+00	    0.000000E+00	
    1.192266E-02	    8.404173E-03	    0.000000E+00	    0.000000E+00	    1.000000E-03	    1.000000E-03	    1.000000E+03	    0.000000E+00	    0.000000E+00	    2.086036E+04	    0.000000E+00	    1.000000E+00	    0.000000E+00	    0.000000E+00	
    1.212866E-02	    6.784619E-03	    0.000000E+00	    0.000000E+00	    1.000000E-03	    1.000000E-03	    1.000000E+03	    0.000000E+00	    0.000000E+00	    3.191286E+04	    0.000000E+00	    1.000000E+00	    0.000000E+00	    0.000000E+00	
    1.212786E-02	    5.331585E-03	    0.000000E+00	    0.000000E+00	    1.000000E-03	    1.000000E-03	    1.000000E+03	    0.000000E+00	    0.000000E+00	    5.157754E+04	    0.000000E+00	    1.000000E+00	    0.000000E+00	    0.000000E+00	
    1.198770E-02	    4.085523E-03	    0.000000E+00	    0.000000E+00	    1.000000E-03	    1.000000E-03	    1.000000E+03	    0.000000E+00	    0.000000E+00	    8.772070E+04	    0.000000E+00	    1.000000E+00	    0.000000E+00	    0.000000E+00	
    1.177195E-02	    3.057542E-03	    0.000000E+00	    0.000000E+00	    1.000000E-03	    1.000000E-03	    1.000000E+03	    0.000000E+00	    0.000000E+00	    1.564699E+05	    0.000000E+00	    1.000000E+00	    0.000000E+00	    0.000000E+00	
    1.153139E-02	    2.237333E-03	    0.000000E+00	    0.000000E+00	    1.000000E-03	    1.000000E-03	    1.000000E+03	    0.000000E+00	    0.000000E+00	    2.920089E+05	    0.000000E+00	    1.000000E+00	    0.000000E+00	    0.000000E+00	
    1.130069E-02	    1.601959E-03	    0.000000E+00	    0.000000E+00	    1.000000E-03	    1.000000E-03	    1.000000E+03	    0.000000E+00	    0.000000E+00	    5.692640E+05	    0.000000E+00	    1.000000E+00	    0.000000E+00	    0.000000E+00	
    1.109958E-02	    1.122951E-03	    0.000000E+00	    0.000000E+00	    1.000000E-03	    1.000000E-03	    1.000000E+03	    0.000000E+00	    0.000000E+00	    1.158015E+06	    0.000000E+00	    1.000000E+00	    0.000000E+00	    0.000000E+00	
    1.093613E-02	    7.710651E-04	    0.000000E+00	    0.000000E+00	    1.000000E-03	    1.000000E-03	    1.000000E+03	    0.000000E+00	    0.000000E+00	    2.455398E+06	    0.000000E+00	    1.000000E+00	    0.000000E+00	    0.000000E+00	
    1.081050E-02	    5.190321E-04	    0.000000E+00	    0.000000E+00	    1.000000E-03	    1.000000E-03	    1.000000E+03	    0.000000E+00	    0.000000E+00	    5.417776E+06	    0.000000E+00	    1.000000E+00	    0.000000E+00	    0.000000E+00	
    1.071835E-02	    3.429620E-04	    0.000000E+00	    0.000000E+00	    1.000000E-03	    1.000000E-03	    1.000000E+03	    0.000000E+00	    0.000000E+00	    1.240656E+07	    0.000000E+00	    1.000000E+00	    0.000000E+00	    0.000000E+00	
    1.065339E-02	    2.229027E-04	    0.000000E+00	    0.000000E+00	    1.000000E-03	    1.000000E-03	    1.000000E+03	    0.000000E+00	    0.000000E+00	    2.936756E+07	    0.000000E+00	    1.000000E+00	    0.000000E+00	    0.000000E+00	
    1.060912E-02	    1.428873E-04	    0.000000E+00	    0.000000E+00	    1.000000E-03	    1.000000E-03	    1.000000E+03	    0.000000E+00	    0.000000E+00	    7.146295E+07	    0.000000E+00	    1.000000E+00	    0.000000E+00	    0.000000E+00	
    1.057979E-02	    9.065323E-05	    0.000000E+00	    0.000000E+00	    1.000000E-03	    1.000000E-03	    1.000000E+03	    0.000000E+00	    0.000000E+00	    1.775343E+08	    0.000000E+00	    1.000000E+00	    0.000000E+00	    0.000000E+00	
    1.056081E-02	    5.715400E-05	    0.000000E+00	    0.000000E+00	    1.000000E-03	    1.000000E-03	    1.000000E+03	    0.000000E+00	    0.000000E+00	    4.466249E+08	    0.000000E+00	    1.000000E+00	    0.000000E+00	    0.000000E+00	
    1.055408E-02	    4.533769E-05	    0.000000E+00	    0.000000E+00	    1.000000E-03	    1.000000E-03	    1.000000E+03	    0.000000E+00	    0.000000E+00	    0.000000E+00	    0.000000E+00	    1.000000E+00	    0.000000E+00	    0.000000E+00	
   -1.055366E-02	    4.557089E-05	    0.000000E+00	    0.000000E+00	    1.000000E-03	    1.000000E-03	    1.000000E+03	    0.000000E+00	    0.000000E+00	    0.000000E+00	    0.000000E+00	    1.000000E+00	    0.000000E+00	    0.000000E+00	
   -1.056029E-02	    5.744740E-05	    5.175804E-04	   -1.000000E+00	    1.600000E-03	    1.600000E-03	    8.010000E+02	    3.507507E-14	    1.955730E-08	    4.466249E+08	    4.949404E+05	    1.000000E+00	    5.981599E-07	    4.324088E+02	
   -1.057897E-02	    9.111596E-05	    1.259562E-03	   -1.000000E+00	    1.600000E-03	    1.600000E-03	    8.010000E+02	    2.345898E-13	    5.199466E-08	    1.775343E+08	    1.163465E+06	    1.000000E+00	    9.487409E-07	    6.820255E+02	
   -1.060781E-02	    1.436102E-04	    2.228445E-03	   -1.000000E+00	    1.600000E-03	    1.600000E-03	    8.010000E+02	    1.828412E-12	    1.631258E-07	    7.146295E+07	    1.465696E+06	    1.000000E+00	    1.495369E-06	    8.603268E+02	
   -1.065134E-02	    2.240149E-04	    3.585400E-03	   -1.000000E+00	    1.600000E-03	    1.600000E-03	    8.010000E+02	    1.158606E-11	    4.247869E-07	    2.936756E+07	    1.558976E+06	    1.000000E+00	    2.332678E-06	    9.179317E+02	
   -1.071518E-02	    3.446375E-04	    5.531780E-03	   -1.000000E+00	    1.600000E-03	    1.600000E-03	    8.010000E+02	    6.596295E-11	    1.021690E-06	    1.240656E+07	    1.567452E+06	    1.000000E+00	    3.588914E-06	    9.278872E+02	
   -1.080566E-02	    5.214885E-04	    8.300953E-03	   -1.000000E+00	    1.600000E-03	    1.600000E-03	    8.010000E+02	    3.457744E-10	    2.338737E-06	    5.417776E+06	    1.540875E+06	    1.000000E+00	    5.430980E-06	    9.199388E+02	
   -1.092885E-02	    7.745458E-04	    1.216269E-02	   -1.000000E+00	    1.600000E-03	    1.600000E-03	    8.010000E+02	    1.678886E-09	    5.146482E-06	    2.455398E+06	    1.498614E+06	    1.000000E+00	    8.067293E-06	    9.062043E+02	
   -1.108882E-02	    1.127678E-03	    1.745418E-02	   -1.000000E+00	    1.600001E-03	    1.600000E-03	    8.010000E+02	    7.599321E-09	    1.098643E-05	    1.158015E+06	    1.454660E+06	    1.000000E+00	    1.174713E-05	    8.961090E+02	
   -1.128507E-02	    1.608037E-03	    2.453577E-02	   -1.000000E+00	    1.600006E-03	    1.600000E-03	    8.010000E+02	    3.209885E-08	    2.281239E-05	    5.692640E+05	    1.411867E+06	    1.000000E+00	    1.675454E-05	    8.923124E+02	
   -1.150915E-02	    2.244592E-03	    3.375036E-02	   -1.000000E+00	    1.600023E-03	    1.600000E-03	    8.010000E+02	    1.262744E-07	    4.603400E-05	    2.920089E+05	    1.368672E+06	    1.000000E+00	    2.339337E-05	    8.943942E+02	
   -1.174095E-02	    3.065295E-03	    4.541353E-02	   -1.000000E+00	    1.600083E-03	    1.600000E-03	    8.010000E+02	    4.616842E-07	    9.018686E-05	    1.564699E+05	    1.325222E+06	    1.000000E+00	    3.195811E-05	    9.025920E+02	
   -1.194555E-02	    4.092259E-03	    5.986748E-02	   -1.000000E+00	    1.600283E-03	    1.600000E-03	    8.010000E+02	    1.574213E-06	    1.723983E-04	    8.772070E+04	    1.286156E+06	    1.000000E+00	    4.268391E-05	    9.222016E+02	
   -1.207227E-02	    5.334655E-03	    7.676095E-02	   -1.000000E+00	    1.600874E-03	    1.600000E-03	    8.010000E+02	    4.856221E-06	    3.126991E-04	    5.157754E+04	    1.231939E+06	    1.000000E+00	    5.567242E-05	    9.360956E+02	
   -1.205801E-02	    6.780056E-03	    9.658353E-02	   -1.000000E+00	    1.602486E-03	    1.600000E-03	    8.010000E+02	    1.380935E-05	    5.501819E-04	    3.191286E+04	    1.181738E+06	    1.000000E+00	    7.080080E-05	    9.659990E+02	
   -1.183675E-02	    8.386858E-03	    1.176974E-01	   -1.000000E+00	    1.606187E-03	    1.600000E-03	    8.010000E+02	    3.437159E-05	    8.951359E-04	    2.086036E+04	    1.104931E+06	    1.000000E+00	    8.764071E-05	    9.799329E+02	
   -1.135484E-02	    1.008216E-02	    1.399512E-01	   -1.000000E+00	    1.613813E-03	    1.600000E-03	    8.010000E+02	    7.673710E-05	    1.385394E-03	    1.446107E+04	    1.025723E+06	    1.000000E+00	    1.054336E-04	    1.001617E+03	
   -1.058786E-02	    1.176935E-02	    1.624315E-01	   -1.000000E+00	    1.627076E-03	    1.600000E-03	    8.010000E+02	    1.504237E-04	    2.001381E-03	    1.065727E+04	    9.556194E+05	    1.000000E+00	    1.231674E-04	    1.023859E+03	
   -9.551701E-03	    1.334566E-02	    1.835982E-01	   -1.000000E+00	    1.645916E-03	    1.600000E-03	    8.010000E+02	    2.550888E-04	    2.657393E-03	    8.344433E+03	    8.981337E+05	    1.000000E+00	    1.397593E-04	    1.035695E+03	
   -8.301463E-03	    1.472407E-02	    2.021236E-01	   -1.000000E+00	    1.668048E-03	    1.600000E-03	    8.010000E+02	    3.780442E-04	    3.262465E-03	    6.912512E+03	    8.538940E+05	    1.000000E+00	    1.542867E-04	    1.036644E+03	
   -6.917879E-03	    1.585026E-02	    2.172471E-01	   -1.000000E+00	    1.690152E-03	    1.600000E-03	    8.010000E+02	    5.008465E-04	    3.761782E-03	    6.016190E+03	    8.217855E+05	    1.000000E+00	    1.661690E-04	    1.031448E+03	
   -5.487675E-03	    1.670814E-02	    2.279638E-01	   -1.000000E+00	    1.708068E-03	    1.600000E-03	    8.010000E+02	    6.003787E-04	    4.086500E-03	    5.452037E+03	    7.980273E+05	    1.000000E+00	    1.752282E-04	    1.014449E+03	
   -4.086467E-03	    1.731392E-02	    2.354818E-01	   -1.000000E+00	    1.721736E-03	    1.600000E-03	    8.010000E+02	    6.763105E-04	    4.309822E-03	    5.104413E+03	    7.823209E+05	    1.000000E+00	    1.816294E-04	    1.001640E+03	
   -2.769337E-03	    1.770413E-02	    2.402938E-01	   -1.000000E+00	    1.730964E-03	    1.600000E-03	    8.010000E+02	    7.275794E-04	    4.450509E-03	    4.899613E+03	    7.725458E+05	    1.000000E+00	    1.857544E-04	    9.930375E+02	
   -1.569270E-03	    1.792335E-02	    2.429805E-01	   -1.000000E+00	    1.736285E-03	    1.600000E-03	    8.010000E+02	    7.571401E-04	    4.528206E-03	    4.790518E+03	    7.671318E+05	    1.000000E+00	    1.880725E-04	    9.880541E+02	
   -5.006109E-04	    1.801528E-02	    2.440947E-01	   -1.000000E+00	    1.738538E-03	    1.600000E-03	    8.010000E+02	    7.696554E-04	    4.560244E-03	    4.745962E+03	    7.648268E+05	    1.000000E+00	    1.890447E-04	    9.858709E+02	
    5.006109E-04	    1.801528E-02	    2.440947E-01	   -1.000000E+00	    1.738538E-03	    1.600000E-03	    8.010000E+02	    7.696554E-04	    4.560244E-03	    4.745962E+03	    7.648268E+05	    1.000000E+00	    1.890447E-04	    9.858709E+02	
    1.569270E-03	    1.792335E-02	    2.429805E-01	   -1.000000E+00	    1.736285E-03	    1.600000E-03	    8.010000E+02	    7.571401E-04	    4.528206E-03	    4.790518E+03	    7.671318E+05	    1.000000E+00	    1.880725E-04	    9.880541E+02	
    2.769337E-03	    1.770413E-02	    2.402938E-01	   -1.000000E+00	    1.730964E-03	    1.600000E-03	    8.010000E+02	    7.275794E-04	    4.450509E-03	    4.899613E+03	    7.725458E+05	    1.000000E+00	    1.857544E-04	    9.930375E+02	
    4.086467E-03	    1.731392E-02	    2.354818E-01	   -1.000000E+00	    1.721736E-03	    1.600000E-03	    8.010000E+02	    6.763105E-04	    4.309822E-03	    5.104413E+03	    7.823209E+05	    1.000000E+00	    1.816294E-04	    1.001640E+03	
    5.487675E-03	    1.670814E-02	    2.279638E-01	   -1.000000E+00	    1.708068E-03	    1.600000E-03	    8.010000E+02	    6.003787E-04	    4.086500E-03	    5.452037E+03	    7.980273E+05	    1.000000E+00	    1.752282E-04	    1.014449E+03	
    6.917879E-03	    1.585026E-02	    2.172471E-01	   -1.000000E+00	    1.690152E-03	    1.600000E-03	    8.010000E+02	    5.008465E-04	    3.761782E-03	    6.016190E+03	    8.217855E+05	    1.000000E+00	    1.661690E-04	    1.031448E+03	
    8.301463E-03	    1.472407E-02	    2.021236E-01	   -1.000000E+00	    1.668048E-03	    1.600000E-03	    8.010000E+02	    3.780442E-04	    3.262465E-03	    6.912512E+03	    8.538940E+05	    1.000000E+00	    1.542867E-04	    1.036644E+03	
    9.551701E-03	    1.334566E-02	    1.835982E-01	   -1.000000E+00	    1.645916E-03	    1.600000E-03	    8.010000E+02	    2.550888E-04	    2.657393E-03	    8.344433E+03	    8.981337E+05	    1.000000E+00	    1.397593E-04	    1.035695E+03	
    1.058786E-02	    1.176935E-02	    1.624315E-01	   -1.000000E+00	    1.627076E-03	    1.600000E-03	    8.010000E+02	    1.504237E-04	    2.001381E-03	    1.065727E+04	    9.556194E+05	    1.000000E+00	    1.231674E-04	    1.023859E+03	
    1.135484E-02	    1.008216E-02	    1.399512E-01	   -1.000000E+00	    1.613813E-03	    1.600000E-03	    8.010000E+02	    7.673710E-05	    1.385394E-03	    1.446107E+04	    1.025723E+06	    1.000000E+00	    1.054336E-04	    1.001617E+03	
    1.183675E-02	    8.386858E-03	    1.176974E-01	   -1.000000E+00	    1.606187E-03	    1.600000E-03	    8.010000E+02	    3.437159E-05	    8.951359E-04	    2.086036E+04	    1.104931E+06	    1.000000E+00	    8.764071E-05	    9.799329E+02	
    1.205801E-02	    6.780056E-03	    9.658353E-02	   -1.000000E+00	    1.602486E-03	    1.600000E-03	    8.010000E+02	    1.380935E-05	    5.501819E-04	    3.191286E+04	    1.181738E+06	    1.000000E+00	    7.080080E-05	    9.659990E+02	
    1.207227E-02	    5.334655E-03	    7.676095E-02	   -1.000000E+00	    1.600874E-03	    1.600000E-03	    8.010000E+02	    4.856221E-06	    3.126991E-04	    5.157754E+04	    1.231939E+06	    1.000000E+00	    5.567242E-05	    9.360956E+02	
    1.194555E-02	    4.092259E-03	    5.986748E-02	   -1.000000E+00	    1.600283E-03	    1.600000E-03	    8.010000E+02	    1.574213E-06	    1.723983E-04	    8.772070E+04	    1.286156E+06	    1.000000E+00	    4.268391E-05	    9.222016E+02	
    1.174095E-02	    3.065295E-03	    4.541353E-02	   -1.000000E+00	    1.600083E-03	    1.600000E-03	    8.010000E+02	    4.616842E-07	    9.018686E-05	    1.564699E+05	    1.325222E+06	    1.000000E+00	    3.195811E-05	    9.025920E+02	
    1.150915E-02	    2.244592E-03	    3.375036E-02	   -1.000000E+00	    1.600023E-03	    1.600000E-03	    8.010000E+02	    1.262744E-07	    4.603400E-05	    2.920089E+05	    1.368672E+06	    1.000000E+00	    2.339337E-05	    8.943942E+02	
    1.128507E-02	    1.608037E-03	    2.453577E-02	   -1.000000E+00	    1.600006E-03	    1.600000E-03	    8.010000E+02	    3.209885E-08	    2.281238E-05	    5.692640E+05	    1.411867E+06	    1.000000E+00	    1.675454E-05	    8.923124E+02	
    1.108882E-02	    1.127678E-03	    1.745418E-02	   -1.000000E+00	    1.600001E-03	    1.600000E-03	    8.010000E+02	    7.599321E-09	    1.098643E-05	    1.158015E+06	    1.454660E+06	    1.000000E+00	    1.174713E-05	    8.961090E+02	
    1.092885E-02	    7.745458E-04	    1.216269E-02	   -1.000000E+00	    1.600000E-03	    1.600000E-03	    8.010000E+02	    1.678886E-09	    5.146482E-06	    2.455398E+06	    1.498614E+06	    1.000000E+00	    8.067293E-06	    9.062043E+02	
    1.080566E-02	    5.214885E-04	    8.300953E-03	   -1.000000E+00	    1.600000E-03	    1.600000E-03	    8.010000E+02	    3.457743E-10	    2.338737E-06	    5.417776E+06	    1.540875E+06	    1.000000E+00	    5.430980E-06	    9.199388E+02	
    1.071518E-02	    3.446375E-04	    5.531780E-03	   -1.000000E+00	    1.600000E-03	    1.600000E-03	    8.010000E+02	    6.596295E-11	    1.021690E-06	    1.240656E+07	    1.567452E+06	    1.000000E+00	    3.588914E-06	    9.278872E+02	
    1.065134E-02	    2.240149E-04	    3.585400E-03	   -1.000000E+00	    1.600000E-03	    1.600000E-03	    8.010000E+02	    1.158606E-11	    4.247869E-07	    2.936756E+07	    1.558976E+06	    1.000000E+00	    2.332678E-06	    9.179317E+02	
    1.060781E-02	    1.436102E-04	    2.228445E-03	   -1.000000E+00	    1.600000E-03	    1.600000E-03	    8.010000E+02	    1.828412E-12	    1.631258E-07	    7.146295E+07	    1.465696E+06	    1.000000E+00	    1.495369E-06	    8.603268E+02	
    1.057897E-02	    9.111596E-05	    1.259562E-03	   -1.000000E+00	    1.600000E-03	    1.600000E-03	    8.010000E+02	    2.345898E-13	    5.199467E-08	    1.775343E+08	    1.163465E+06	    1.000000E+00	    9.487409E-07	    6.820255E+02	
    1.056029E-02	    5.744740E-05	    5.175804E-04	   -1.000000E+00	    1.600000E-03	    1.600000E-03	    8.010000E+02	    3.507507E-14	    1.955730E-08	    4.466249E+08	    4.949404E+05	    1.000000E+00	    5.981599E-07	    4.324089E+02	
    1.055366E-02	    4.557089E-05	    0.000000E+00	    0.000000E+00	    1.000000E-03	    1.000000E-03	    1.000000E+03	    0.000000E+00	    0.000000E+00	    8.643837E+05	    0.000000E+00	    1.000000E+00	    0.000000E+00	    0.000000E+00	
   -1.055270E-02	    4.609610E-05	    0.000000E+00	    0.000000E+00	    1.000000E-03	    1.000000E-03	    1.000000E+03	    0.000000E+00	    0.000000E+00	    8.643837E+05	    0.000000E+00	    1.000000E+00	    0.000000E+00	    0.000000E+00	
   -1.055907E-02	    5.810810E-05	    1.265837E-03	   -1.000000E+00	    1.600000E-03	    1.600000E-03	    8.010000E+02	    2.072905E-10	    2.236935E-07	    8.643837E+05	    2.969971E+05	    1.000000E+00	    1.982338E-06	    6.921982E+00	
   -1.057703E-02	    9.215766E-05	    3.080460E-03	   -1.000000E+00	    1.600000E-03	    1.600000E-03	    8.010000E+02	    2.814704E-13	    8.691975E-09	    2.473536E+07	    6.891238E+05	    1.906424E-03	    3.144079E-06	    1.939680E-07	
   -1.060476E-02	    1.452368E-04	    5.449573E-03	   -1.000000E+00	    1.600000E-03	    1.600000E-03	    8.010000E+02	    2.606749E-12	    3.384388E-08	    1.039952E+07	    8.671662E+05	    9.999982E-01	    4.955314E-06	    2.260485E-06	
   -1.064656E-02	    2.265156E-04	    8.766705E-03	   -1.000000E+00	    1.600000E-03	    1.600000E-03	    8.010000E+02	    2.457463E-11	    1.311417E-07	    4.274510E+06	    9.218335E+05	    1.000000E+00	    7.729346E-06	    2.265372E-05	
   -1.070778E-02	    3.484005E-04	    1.352285E-02	   -1.000000E+00	    1.600000E-03	    1.600000E-03	    8.010000E+02	    2.194176E-10	    4.947927E-07	    1.806277E+06	    9.263314E+05	    1.000000E+00	    1.189045E-05	    2.032534E-04	
   -1.079437E-02	    5.269958E-04	    2.028559E-02	   -1.000000E+00	    1.600000E-03	    1.600000E-03	    8.010000E+02	    1.806925E-09	    1.780038E-06	    7.890808E+05	    9.099366E+05	    1.000000E+00	    1.799023E-05	    1.644188E-03	
   -1.091190E-02	    7.823290E-04	    2.970822E-02	   -1.000000E+00	    1.600002E-03	    1.600000E-03	    8.010000E+02	    1.351050E-08	    6.035311E-06	    3.578167E+05	    8.839788E+05	    1.000000E+00	    2.671630E-05	    1.194300E-02	
   -1.106380E-02	    1.138205E-03	    4.260339E-02	   -1.000000E+00	    1.600017E-03	    1.600000E-03	    8.010000E+02	    9.183146E-08	    1.936139E-05	    1.688797E+05	    8.565773E+05	    1.000000E+00	    3.888900E-05	    7.866074E-02	
   -1.124880E-02	    1.621490E-03	    5.983053E-02	   -1.000000E+00	    1.600101E-03	    1.600000E-03	    8.010000E+02	    5.623305E-07	    5.833596E-05	    8.309545E+04	    8.288023E+05	    1.000000E+00	    5.543943E-05	    4.660608E-01	
   -1.145758E-02	    2.260494E-03	    8.218802E-02	   -1.000000E+00	    1.600554E-03	    1.600000E-03	    8.010000E+02	    3.075970E-06	    1.638204E-04	    4.265975E+04	    7.971788E+05	    1.000000E+00	    7.735761E-05	    2.452098E+00	
   -1.166922E-02	    3.081962E-03	    1.103631E-01	   -1.000000E+00	    1.602692E-03	    1.600000E-03	    8.010000E+02	    1.495700E-05	    4.267830E-04	    2.285573E+04	    7.534090E+05	    1.000000E+00	    1.055932E-04	    1.126874E+01	
   -1.184832E-02	    4.106106E-03	    1.449668E-01	   -1.000000E+00	    1.611737E-03	    1.600000E-03	    8.010000E+02	    6.520563E-05	    1.040959E-03	    1.278737E+04	    6.862628E+05	    1.000000E+00	    1.408883E-04	    4.474820E+01	
   -1.194449E-02	    5.339511E-03	    1.844513E-01	   -1.000000E+00	    1.642716E-03	    1.600000E-03	    8.010000E+02	    2.373115E-04	    2.227098E-03	    7.517147E+03	    5.876740E+05	    1.000000E+00	    1.835333E-04	    1.394618E+02	
   -1.189627E-02	    6.766824E-03	    2.282439E-01	   -1.000000E+00	    1.729867E-03	    1.600000E-03	    8.010000E+02	    7.214808E-04	    4.243329E-03	    4.711015E+03	    4.842815E+05	    1.000000E+00	    2.330726E-04	    3.493998E+02	
   -1.164097E-02	    8.343965E-03	    2.701513E-01	   -1.000000E+00	    1.901148E-03	    1.600000E-03	    8.010000E+02	    1.673046E-03	    6.686783E-03	    3.201415E+03	    3.911313E+05	    1.000000E+00	    2.880513E-04	    6.543805E+02	
   -1.112983E-02	    9.997178E-03	    3.081336E-01	   -1.000000E+00	    2.175455E-03	    1.600000E-03	    8.010000E+02	    3.196974E-03	    9.415373E-03	    2.359016E+03	    3.101529E+05	    1.000000E+00	    3.459540E-04	    9.915507E+02	
   -1.034374E-02	    1.163157E-02	    3.409578E-01	   -1.000000E+00	    2.529364E-03	    1.600000E-03	    8.010000E+02	    5.163136E-03	    1.200633E-02	    1.862642E+03	    2.455945E+05	    1.000000E+00	    4.034744E-04	    1.268038E+03	
   -9.302745E-03	    1.314882E-02	    3.681986E-01	   -1.000000E+00	    2.909147E-03	    1.600000E-03	    8.010000E+02	    7.273037E-03	    1.410467E-02	    1.553386E+03	    1.983087E+05	    1.000000E+00	    4.571211E-04	    1.442307E+03	
   -8.063387E-03	    1.446795E-02	    3.900401E-01	   -1.000000E+00	    3.264968E-03	    1.600000E-03	    8.010000E+02	    9.249819E-03	    1.563599E-02	    1.354019E+03	    1.656134E+05	    1.000000E+00	    5.039593E-04	    1.531894E+03	