Title="Fields"
Variables="X""Y""Velocity""Phi""Effective Viscosity""Dynamic Viscosity""Density""Eddy Viscosity""K""Omega""S""F1SST""distance""GEN"
Zone I=52 J=52 F=POINT
   -1.174641E-02	    5.636967E-05	    0.000000E+00	    0.000000E+00	    1.000000E-03	    1.000000E-03	    1.000000E+03	    0.000000E+00	    0.000000E+00	    9.125690E+08	    0.000000E+00	    1.000000E+00	    0.000000E+00	    0.000000E+00	
   -1.174254E-02	    7.099251E-05	    0.000000E+00	    0.000000E+00	    1.000000E-03	    1.000000E-03	    1.000000E+03	    0.000000E+00	    0.000000E+00	    9.125690E+08	    0.000000E+00	    1.000000E+00	    0.000000E+00	    0.000000E+00	
   -1.173149E-02	    1.122949E-04	    0.000000E+00	    0.000000E+00	    1.000000E-03	    1.000000E-03	    1.000000E+03	    0.000000E+00	    0.000000E+00	    3.647365E+08	    0.000000E+00	    1.000000E+00	    0.000000E+00	    0.000000E+00	
   -1.171407E-02	    1.762475E-04	    0.000000E+00	    0.000000E+00	    1.000000E-03	    1.000000E-03	    1.000000E+03	    0.000000E+00	    0.000000E+00	    1.480699E+08	    0.000000E+00	    1.000000E+00	    0.000000E+00	    0.000000E+00	
   -1.168695E-02	    2.731678E-04	    0.000000E+00	    0.000000E+00	    1.000000E-03	    1.000000E-03	    1.000000E+03	    0.000000E+00	    0.000000E+00	    6.164166E+07	    0.000000E+00	    1.000000E+00	    0.000000E+00	    0.000000E+00	
   -1.164532E-02	    4.162655E-04	    0.000000E+00	    0.000000E+00	    1.000000E-03	    1.000000E-03	    1.000000E+03	    0.000000E+00	    0.000000E+00	    2.654745E+07	    0.000000E+00	    1.000000E+00	    0.000000E+00	    0.000000E+00	
   -1.158235E-02	    6.212211E-04	    0.000000E+00	    0.000000E+00	    1.000000E-03	    1.000000E-03	    1.000000E+03	    0.000000E+00	    0.000000E+00	    1.192104E+07	    0.000000E+00	    1.000000E+00	    0.000000E+00	    0.000000E+00	
   -1.148861E-02	    9.048904E-04	    0.000000E+00	    0.000000E+00	    1.000000E-03	    1.000000E-03	    1.000000E+03	    0.000000E+00	    0.000000E+00	    5.619200E+06	    0.000000E+00	    1.000000E+00	    0.000000E+00	    0.000000E+00	
   -1.135145E-02	    1.282942E-03	    0.000000E+00	    0.000000E+00	    1.000000E-03	    1.000000E-03	    1.000000E+03	    0.000000E+00	    0.000000E+00	    2.795966E+06	    0.000000E+00	    1.000000E+00	    0.000000E+00	    0.000000E+00	
   -1.115491E-02	    1.766500E-03	    0.000000E+00	    0.000000E+00	    1.000000E-03	    1.000000E-03	    1.000000E+03	    0.000000E+00	    0.000000E+00	    1.475097E+06	    0.000000E+00	    1.000000E+00	    0.000000E+00	    0.000000E+00	
   -1.088036E-02	    2.358269E-03	    0.000000E+00	    0.000000E+00	    1.000000E-03	    1.000000E-03	    1.000000E+03	    0.000000E+00	    0.000000E+00	    8.279151E+05	    0.000000E+00	    1.000000E+00	    0.000000E+00	    0.000000E+00	
   -1.050874E-02	    3.049126E-03	    0.000000E+00	    0.000000E+00	    1.000000E-03	    1.000000E-03	    1.000000E+03	    0.000000E+00	    0.000000E+00	    4.954137E+05	    0.000000E+00	    1.000000E+00	    0.000000E+00	    0.000000E+00	
   -1.002424E-02	    3.816493E-03	    0.000000E+00	    0.000000E+00	    1.000000E-03	    1.000000E-03	    1.000000E+03	    0.000000E+00	    0.000000E+00	    3.163396E+05	    0.000000E+00	    1.000000E+00	    0.000000E+00	    0.000000E+00	
   -9.419058E-03	    4.625736E-03	    0.000000E+00	    0.000000E+00	    1.000000E-03	    1.000000E-03	    1.000000E+03	    0.000000E+00	    0.000000E+00	    2.154247E+05	    0.000000E+00	    1.000000E+00	    0.000000E+00	    0.000000E+00	
   -8.697264E-03	    5.434960E-03	    0.000000E+00	    0.000000E+00	    1.000000E-03	    1.000000E-03	    1.000000E+03	    0.000000E+00	    0.000000E+00	    1.561142E+05	    0.000000E+00	    1.000000E+00	    0.000000E+00	    0.000000E+00	
   -7.876271E-03	    6.202168E-03	    0.000000E+00	    0.000000E+00	    1.000000E-03	    1.000000E-03	    1.000000E+03	    0.000000E+00	    0.000000E+00	    1.199282E+05	    0.000000E+00	    1.000000E+00	    0.000000E+00	    0.000000E+00	
   -6.984706E-03	    6.892500E-03	    0.000000E+00	    0.000000E+00	    1.000000E-03	    1.000000E-03	    1.000000E+03	    0.000000E+00	    0.000000E+00	    9.714399E+04	    0.000000E+00	    1.000000E+00	    0.000000E+00	    0.000000E+00	
   -6.057409E-03	    7.483197E-03	    0.000000E+00	    0.000000E+00	    1.000000E-03	    1.000000E-03	    1.000000E+03	    0.000000E+00	    0.000000E+00	    8.243994E+04	    0.000000E+00	    1.000000E+00	    0.000000E+00	    0.000000E+00	
   -5.129442E-03	    7.964994E-03	    0.000000E+00	    0.000000E+00	    1.000000E-03	    1.000000E-03	    1.000000E+03	    0.000000E+00	    0.000000E+00	    7.278824E+04	    0.000000E+00	    1.000000E+00	    0.000000E+00	    0.000000E+00	
   -4.231109E-03	    8.340330E-03	    0.000000E+00	    0.000000E+00	    1.000000E-03	    1.000000E-03	    1.000000E+03	    0.000000E+00	    0.000000E+00	    6.639909E+04	    0.000000E+00	    1.000000E+00	    0.000000E+00	    0.000000E+00	
   -3.385133E-03	    8.619758E-03	    0.000000E+00	    0.000000E+00	    1.000000E-03	    1.000000E-03	    1.000000E+03	    0.000000E+00	    0.000000E+00	    6.217447E+04	    0.000000E+00	    1.000000E+00	    0.000000E+00	    0.000000E+00	
   -2.606025E-03	    8.818081E-03	    0.000000E+00	    0.000000E+00	    1.000000E-03	    1.000000E-03	    1.000000E+03	    0.000000E+00	    0.000000E+00	    5.941654E+04	    0.000000E+00	    1.000000E+00	    0.000000E+00	    0.000000E+00	
   -1.900985E-03	    8.951216E-03	    0.000000E+00	    0.000000E+00	    1.000000E-03	    1.000000E-03	    1.000000E+03	    0.000000E+00	    0.000000E+00	    5.766705E+04	    0.000000E+00	    1.000000E+00	    0.000000E+00	    0.000000E+00	
   -1.271545E-03	    9.034132E-03	    0.000000E+00	    0.000000E+00	    1.000000E-03	    1.000000E-03	    1.000000E+03	    0.000000E+00	    0.000000E+00	    5.661633E+04	    0.000000E+00	    1.000000E+00	    0.000000E+00	    0.000000E+00	
   -7.153158E-04	    9.079777E-03	    0.000000E+00	    0.000000E+00	    1.000000E-03	    1.000000E-03	    1.000000E+03	    0.000000E+00	    0.000000E+00	    5.605017E+04	    0.000000E+00	    1.000000E+00	    0.000000E+00	    0.000000E+00	
   -2.275013E-04	    9.098721E-03	    0.000000E+00	    0.000000E+00	    1.000000E-03	    1.000000E-03	    1.000000E+03	    0.000000E+00	    0.000000E+00	    5.581768E+04	    0.000000E+00	    1.000000E+00	    0.000000E+00	    0.000000E+00	
    2.275013E-04	    9.098721E-03	    0.000000E+00	    0.000000E+00	    1.000000E-03	    1.000000E-03	    1.000000E+03	    0.000000E+00	    0.000000E+00	    5.581768E+04	    0.000000E+00	    1.000000E+00	    0.000000E+00	    0.000000E+00	
    7.153158E-04	    9.079777E-03	    0.000000E+00	    0.000000E+00	    1.000000E-03	    1.000000E-03	    1.000000E+03	    0.000000E+00	    0.000000E+00	    5.605017E+04	    0.000000E+00	    1.000000E+00	    0.000000E+00	    0.000000E+00	
    1.271545E-03	    9.034132E-03	    0.000000E+00	    0.000000E+00	    1.000000E-03	    1.000000E-03	    1.000000E+03	    0.000000E+00	    0.000000E+00	    5.661633E+04	    0.000000E+00	    1.000000E+00	    0.000000E+00	    0.000000E+00	
    1.900985E-03	    8.951216E-03	    0.000000E+00	    0.000000E+00	    1.000000E-03	    1.000000E-03	    1.000000E+03	    0.000000E+00	    0.000000E+00	    5.766705E+04	    0.000000E+00	    1.000000E+00	    0.000000E+00	    0.000000E+00	
    2.606025E-03	    8.818081E-03	    0.000000E+00	    0.000000E+00	    1.000000E-03	    1.000000E-03	    1.000000E+03	    0.000000E+00	    0.000000E+00	    5.941654E+04	    0.000000E+00	    1.000000E+00	    0.000000E+00	    0.000000E+00	
    3.385133E-03	    8.619758E-03	    0.000000E+00	    0.000000E+00	    1.000000E-03	    1.000000E-03	    1.000000E+03	    0.000000E+00	    0.000000E+00	    6.217447E+04	    0.000000E+00	    1.000000E+00	    0.000000E+00	    0.000000E+00	
    4.231109E-03	    8.340330E-03	    0.000000E+00	    0.000000E+00	    1.000000E-03	    1.000000E-03	    1.000000E+03	    0.000000E+00	    0.000000E+00	    6.639909E+04	    0.000000E+00	    1.000000E+00	    0.000000E+00	    0.000000E+00	
    5.129442E-03	    7.964994E-03	    0.000000E+00	    0.000000E+00	    1.000000E-03	    1.000000E-03	    1.000000E+03	    0.000000E+00	    0.000000E+00	    7.278824E+04	    0.000000E+00	    1.000000E+00	    0.000000E+00	    0.000000E+00	
    6.057409E-03	    7.483197E-03	    0.000000E+00	    0.000000E+00	    1.000000E-03	    1.000000E-03	    1.000000E+03	    0.000000E+00	    0.000000E+00	    8.243994E+04	    0.000000E+00	    1.000000E+00	    0.000000E+00	    0.000000E+00	
    6.984706E-03	    6.892500E-03	    0.000000E+00	    0.000000E+00	    1.000000E-03	    1.000000E-03	    1.000000E+03	    0.000000E+00	    0.000000E+00	    9.714399E+04	    0.000000E+00	    1.000000E+00	    0.000000E+00	    0.000000E+00	
    7.876271E-03	    6.202168E-03	    0.000000E+00	    0.000000E+00	    1.000000E-03	    1.000000E-03	    1.000000E+03	    0.000000E+00	    0.000000E+00	    1.199282E+05	    0.000000E+00	    1.000000E+00	    0.000000E+00	    0.000000E+00	
    8.697264E-03	    5.434960E-03	    0.000000E+00	    0.000000E+00	    1.000000E-03	    1.000000E-03	    1.000000E+03	    0.000000E+00	    0.000000E+00	    1.561142E+05	    0.000000E+00	    1.000000E+00	    0.000000E+00	    0.000000E+00	
    9.419058E-03	    4.625736E-03	    0.000000E+00	    0.000000E+00	    1.000000E-03	    1.000000E-03	    1.000000E+03	    0.000000E+00	    0.000000E+00	    2.154247E+05	    0.000000E+00	    1.000000E+00	    0.000000E+00	    0.000000E+00	
    1.002424E-02	    3.816493E-03	    0.000000E+00	    0.000000E+00	    1.000000E-03	    1.000000E-03	    1.000000E+03	    0.000000E+00	    0.000000E+00	    3.163396E+05	    0.000000E+00	    1.000000E+00	    0.000000E+00	    0.000000E+00	
    1.050874E-02	    3.049126E-03	    0.000000E+00	    0.000000E+00	    1.000000E-03	    1.000000E-03	    1.000000E+03	    0.000000E+00	    0.000000E+00	    4.954137E+05	    0.000000E+00	    1.000000E+00	    0.000000E+00	    0.000000E+00	
    1.088036E-02	    2.358269E-03	    0.000000E+00	    0.000000E+00	    1.000000E-03	    1.000000E-03	    1.000000E+03	    0.000000E+00	    0.000000E+00	    8.279151E+05	    0.000000E+00	    1.000000E+00	    0.000000E+00	    0.000000E+00	
    1.115491E-02	    1.766500E-03	    0.000000E+00	    0.000000E+00	    1.000000E-03	    1.000000E-03	    1.000000E+03	    0.000000E+00	    0.000000E+00	    1.475097E+06	    0.000000E+00	    1.000000E+00	    0.000000E+00	    0.000000E+00	
    1.135145E-02	    1.282942E-03	    0.000000E+00	    0.000000E+00	    1.000000E-03	    1.000000E-03	    1.000000E+03	    0.000000E+00	    0.000000E+00	    2.795966E+06	    0.000000E+00	    1.000000E+00	    0.000000E+00	    0.000000E+00	
    1.148861E-02	    9.048904E-04	    0.000000E+00	    0.000000E+00	    1.000000E-03	    1.000000E-03	    1.000000E+03	    0.000000E+00	    0.000000E+00	    5.619200E+06	    0.000000E+00	    1.000000E+00	    0.000000E+00	    0.000000E+00	
    1.158235E-02	    6.212211E-04	    0.000000E+00	    0.000000E+00	    1.000000E-03	    1.000000E-03	    1.000000E+03	    0.000000E+00	    0.000000E+00	    1.192104E+07	    0.000000E+00	    1.000000E+00	    0.000000E+00	    0.000000E+00	
    1.164532E-02	    4.162655E-04	    0.000000E+00	    0.000000E+00	    1.000000E-03	    1.000000E-03	    1.000000E+03	    0.000000E+00	    0.000000E+00	    2.654745E+07	    0.000000E+00	    1.000000E+00	    0.000000E+00	    0.000000E+00	
    1.168695E-02	    2.731678E-04	    0.000000E+00	    0.000000E+00	    1.000000E-03	    1.000000E-03	    1.000000E+03	    0.000000E+00	    0.000000E+00	    6.164166E+07	    0.000000E+00	    1.000000E+00	    0.000000E+00	    0.000000E+00	
    1.171407E-02	    1.762475E-04	    0.000000E+00	    0.000000E+00	    1.000000E-03	    1.000000E-03	    1.000000E+03	    0.000000E+00	    0.000000E+00	    1.480699E+08	    0.000000E+00	    1.000000E+00	    0.000000E+00	    0.000000E+00	
    1.173149E-02	    1.122949E-04	    0.000000E+00	    0.000000E+00	    1.000000E-03	    1.000000E-03	    1.000000E+03	    0.000000E+00	    0.000000E+00	    3.647365E+08	    0.000000E+00	    1.000000E+00	    0.000000E+00	    0.000000E+00	
    1.174254E-02	    7.099251E-05	    0.000000E+00	    0.000000E+00	    1.000000E-03	    1.000000E-03	    1.000000E+03	    0.000000E+00	    0.000000E+00	    9.125690E+08	    0.000000E+00	    1.000000E+00	    0.000000E+00	    0.000000E+00	
    1.174641E-02	    5.636967E-05	    0.000000E+00	    0.000000E+00	    1.000000E-03	    1.000000E-03	    1.000000E+03	    0.000000E+00	    0.000000E+00	    0.000000E+00	    0.000000E+00	    1.000000E+00	    0.000000E+00	    0.000000E+00	
   -1.174609E-02	    5.628382E-05	    0.000000E+00	    0.000000E+00	    1.000000E-03	    1.000000E-03	    1.000000E+03	    0.000000E+00	    0.000000E+00	    0.000000E+00	    0.000000E+00	    1.000000E+00	    0.000000E+00	    0.000000E+00	
   -1.174213E-02	    7.088390E-05	    3.837600E-04	   -1.000000E+00	    1.600000E-03	    1.600000E-03	    8.010000E+02	    1.180892E-14	    1.345375E-08	    9.125690E+08	    5.554691E+05	    1.000000E+00	    4.184618E-07	    5.433334E+02	
   -1.173085E-02	    1.121209E-04	    9.456078E-04	   -1.000000E+00	    1.600000E-03	    1.600000E-03	    8.010000E+02	    6.431950E-14	    2.928797E-08	    3.647365E+08	    1.347205E+06	    1.000000E+00	    6.619103E-07	    7.895037E+02	
   -1.171306E-02	    1.759689E-04	    1.679644E-03	   -1.000000E+00	    1.600000E-03	    1.600000E-03	    8.010000E+02	    5.009610E-13	    9.260582E-08	    1.480699E+08	    1.725441E+06	    1.000000E+00	    1.038856E-06	    1.012331E+03	
   -1.168540E-02	    2.727232E-04	    2.683206E-03	   -1.000000E+00	    1.600000E-03	    1.600000E-03	    8.010000E+02	    3.081830E-12	    2.371649E-07	    6.164166E+07	    1.832920E+06	    1.000000E+00	    1.610095E-06	    1.077390E+03	
   -1.164297E-02	    4.155590E-04	    4.072298E-03	   -1.000000E+00	    1.600000E-03	    1.600000E-03	    8.010000E+02	    1.659187E-11	    5.499022E-07	    2.654745E+07	    1.818058E+06	    1.000000E+00	    2.453451E-06	    1.072320E+03	
   -1.157887E-02	    6.201053E-04	    5.972899E-03	   -1.000000E+00	    1.600000E-03	    1.600000E-03	    8.010000E+02	    8.029095E-11	    1.194946E-06	    1.192104E+07	    1.755932E+06	    1.000000E+00	    3.661269E-06	    1.041101E+03	
   -1.148357E-02	    9.031409E-04	    8.524704E-03	   -1.000000E+00	    1.600000E-03	    1.600000E-03	    8.010000E+02	    3.521796E-10	    2.470621E-06	    5.619200E+06	    1.685533E+06	    1.000000E+00	    5.332753E-06	    1.007108E+03	
   -1.134440E-02	    1.280227E-03	    1.185777E-02	   -1.000000E+00	    1.600000E-03	    1.600000E-03	    8.010000E+02	    1.398424E-09	    4.881333E-06	    2.795966E+06	    1.622106E+06	    1.000000E+00	    7.560018E-06	    9.797679E+02	
   -1.114537E-02	    1.762349E-03	    1.605833E-02	   -1.000000E+00	    1.600001E-03	    1.600000E-03	    8.010000E+02	    4.997583E-09	    9.203398E-06	    1.475097E+06	    1.568738E+06	    1.000000E+00	    1.040827E-05	    9.612011E+02	
   -1.086794E-02	    2.352054E-03	    2.113620E-02	   -1.000000E+00	    1.600003E-03	    1.600000E-03	    8.010000E+02	    1.596503E-08	    1.650148E-05	    8.279151E+05	    1.524411E+06	    1.000000E+00	    1.389300E-05	    9.508084E+02	
   -1.049323E-02	    3.040073E-03	    2.700289E-02	   -1.000000E+00	    1.600008E-03	    1.600000E-03	    8.010000E+02	    4.533630E-08	    2.804023E-05	    4.954137E+05	    1.487745E+06	    1.000000E+00	    1.795996E-05	    9.475165E+02	
   -1.000573E-02	    3.803748E-03	    3.338604E-02	   -1.000000E+00	    1.600020E-03	    1.600000E-03	    8.010000E+02	    1.132962E-07	    4.474417E-05	    3.163396E+05	    1.450883E+06	    1.000000E+00	    2.247573E-05	    9.449354E+02	
   -9.397983E-03	    4.608483E-03	    4.012924E-02	   -1.000000E+00	    1.600045E-03	    1.600000E-03	    8.010000E+02	    2.515515E-07	    6.765344E-05	    2.154247E+05	    1.425992E+06	    1.000000E+00	    2.723612E-05	    9.510696E+02	
   -8.674408E-03	    5.412571E-03	    4.668215E-02	   -1.000000E+00	    1.600088E-03	    1.600000E-03	    8.010000E+02	    4.897803E-07	    9.545774E-05	    1.561142E+05	    1.396681E+06	    1.000000E+00	    3.199453E-05	    9.523611E+02	
   -7.852660E-03	    6.174327E-03	    5.290737E-02	   -1.000000E+00	    1.600153E-03	    1.600000E-03	    8.010000E+02	    8.525131E-07	    1.276409E-04	    1.199282E+05	    1.376187E+06	    1.000000E+00	    3.650416E-05	    9.587894E+02	
   -6.961445E-03	    6.859273E-03	    5.852203E-02	   -1.000000E+00	    1.600240E-03	    1.600000E-03	    8.010000E+02	    1.334700E-06	    1.618702E-04	    9.714399E+04	    1.361675E+06	    1.000000E+00	    4.056049E-05	    9.673714E+02	
   -6.035514E-03	    7.444997E-03	    6.321461E-02	   -1.000000E+00	    1.600340E-03	    1.600000E-03	    8.010000E+02	    1.886326E-06	    1.941431E-04	    8.243994E+04	    1.346002E+06	    1.000000E+00	    4.403030E-05	    9.711180E+02	
   -5.109711E-03	    7.922490E-03	    6.699722E-02	   -1.000000E+00	    1.600441E-03	    1.600000E-03	    8.010000E+02	    2.452096E-06	    2.228261E-04	    7.278824E+04	    1.332677E+06	    1.000000E+00	    4.685968E-05	    9.735044E+02	
   -4.214070E-03	    8.294320E-03	    6.994699E-02	   -1.000000E+00	    1.600536E-03	    1.600000E-03	    8.010000E+02	    2.979692E-06	    2.470023E-04	    6.639909E+04	    1.323134E+06	    1.000000E+00	    4.906342E-05	    9.761144E+02	
   -3.371047E-03	    8.571050E-03	    7.214226E-02	   -1.000000E+00	    1.600617E-03	    1.600000E-03	    8.010000E+02	    3.427496E-06	    2.660459E-04	    6.217447E+04	    1.316316E+06	    1.000000E+00	    5.070378E-05	    9.783271E+02	
   -2.594932E-03	    8.767413E-03	    7.369918E-02	   -1.000000E+00	    1.600680E-03	    1.600000E-03	    8.010000E+02	    3.776124E-06	    2.801051E-04	    5.941654E+04	    1.311570E+06	    1.000000E+00	    5.186789E-05	    9.799927E+02	
   -1.892771E-03	    8.899212E-03	    7.474341E-02	   -1.000000E+00	    1.600725E-03	    1.600000E-03	    8.010000E+02	    4.025282E-06	    2.897954E-04	    5.766705E+04	    1.308406E+06	    1.000000E+00	    5.264930E-05	    9.811383E+02	
   -1.266000E-03	    8.981286E-03	    7.539290E-02	   -1.000000E+00	    1.600754E-03	    1.600000E-03	    8.010000E+02	    4.186770E-06	    2.959296E-04	    5.661633E+04	    1.306427E+06	    1.000000E+00	    5.313593E-05	    9.818493E+02	
   -7.121810E-04	    9.026465E-03	    7.574943E-02	   -1.000000E+00	    1.600770E-03	    1.600000E-03	    8.010000E+02	    4.277700E-06	    2.993331E-04	    5.605017E+04	    1.305310E+06	    1.000000E+00	    5.340381E-05	    9.822208E+02	
   -2.265022E-04	    9.045216E-03	    7.589578E-02	   -1.000000E+00	    1.600777E-03	    1.600000E-03	    8.010000E+02	    4.315697E-06	    3.007393E-04	    5.581768E+04	    1.304792E+06	    1.000000E+00	    5.351499E-05	    9.823327E+02	
    2.265022E-04	    9.045216E-03	    7.589578E-02	   -1.000000E+00	    1.600777E-03	    1.600000E-03	    8.010000E+02	    4.315697E-06	    3.007393E-04	    5.581768E+04	    1.304792E+06	    1.000000E+00	    5.351499E-05	    9.823327E+02	
    7.121810E-04	    9.026465E-03	    7.574943E-02	   -1.000000E+00	    1.600770E-03	    1.600000E-03	    8.010000E+02	    4.277700E-06	    2.993331E-04	    5.605017E+04	    1.305310E+06	    1.000000E+00	    5.340381E-05	    9.822208E+02	
    1.266000E-03	    8.981286E-03	    7.539290E-02	   -1.000000E+00	    1.600754E-03	    1.600000E-03	    8.010000E+02	    4.186770E-06	    2.959296E-04	    5.661633E+04	    1.306427E+06	    1.000000E+00	    5.313593E-05	    9.818493E+02	
    1.892771E-03	    8.899212E-03	    7.474341E-02	   -1.000000E+00	    1.600725E-03	    1.600000E-03	    8.010000E+02	    4.025282E-06	    2.897954E-04	    5.766705E+04	    1.308406E+06	    1.000000E+00	    5.264930E-05	    9.811383E+02	
    2.594932E-03	    8.767413E-03	    7.369918E-02	   -1.000000E+00	    1.600680E-03	    1.600000E-03	    8.010000E+02	    3.776124E-06	    2.801051E-04	    5.941654E+04	    1.311570E+06	    1.000000E+00	    5.186789E-05	    9.799927E+02	
    3.371047E-03	    8.571050E-03	    7.214226E-02	   -1.000000E+00	    1.600617E-03	    1.600000E-03	    8.010000E+02	    3.427496E-06	    2.660459E-04	    6.217447E+04	    1.316316E+06	    1.000000E+00	    5.070378E-05	    9.783271E+02	
    4.214070E-03	    8.294320E-03	    6.994699E-02	   -1.000000E+00	    1.600536E-03	    1.600000E-03	    8.010000E+02	    2.979692E-06	    2.470023E-04	    6.639909E+04	    1.323134E+06	    1.000000E+00	    4.906342E-05	    9.761144E+02	
    5.109711E-03	    7.922490E-03	    6.699722E-02	   -1.000000E+00	    1.600441E-03	    1.600000E-03	    8.010000E+02	    2.452096E-06	    2.228261E-04	    7.278824E+04	    1.332677E+06	    1.000000E+00	    4.685968E-05	    9.735044E+02	
    6.035514E-03	    7.444997E-03	    6.321461E-02	   -1.000000E+00	    1.600340E-03	    1.600000E-03	    8.010000E+02	    1.886326E-06	    1.941431E-04	    8.243994E+04	    1.346002E+06	    1.000000E+00	    4.403030E-05	    9.711180E+02	
    6.961445E-03	    6.859273E-03	    5.852203E-02	   -1.000000E+00	    1.600240E-03	    1.600000E-03	    8.010000E+02	    1.334700E-06	    1.618702E-04	    9.714399E+04	    1.361675E+06	    1.000000E+00	    4.056049E-05	    9.673714E+02	
    7.852660E-03	    6.174327E-03	    5.290737E-02	   -1.000000E+00	    1.600153E-03	    1.600000E-03	    8.010000E+02	    8.525131E-07	    1.276409E-04	    1.199282E+05	    1.376187E+06	    1.000000E+00	    3.650416E-05	    9.587894E+02	
    8.674408E-03	    5.412571E-03	    4.668215E-02	   -1.000000E+00	    1.600088E-03	    1.600000E-03	    8.010000E+02	    4.897803E-07	    9.545774E-05	    1.561142E+05	    1.396681E+06	    1.000000E+00	    3.199453E-05	    9.523611E+02	
    9.397983E-03	    4.608483E-03	    4.012924E-02	   -1.000000E+00	    1.600045E-03	    1.600000E-03	    8.010000E+02	    2.515515E-07	    6.765344E-05	    2.154247E+05	    1.425992E+06	    1.000000E+00	    2.723612E-05	    9.510696E+02	
    1.000573E-02	    3.803748E-03	    3.338604E-02	   -1.000000E+00	    1.600020E-03	    1.600000E-03	    8.010000E+02	    1.132962E-07	    4.474417E-05	    3.163396E+05	    1.450883E+06	    1.000000E+00	    2.247573E-05	    9.449354E+02	
    1.049323E-02	    3.040073E-03	    2.700289E-02	   -1.000000E+00	    1.600008E-03	    1.600000E-03	    8.010000E+02	    4.533630E-08	    2.804023E-05	    4.954137E+05	    1.487745E+06	    1.000000E+00	    1.795996E-05	    9.475165E+02	
    1.086794E-02	    2.352054E-03	    2.113620E-02	   -1.000000E+00	    1.600003E-03	    1.600000E-03	    8.010000E+02	    1.596503E-08	    1.650148E-05	    8.279151E+05	    1.524411E+06	    1.000000E+00	    1.389300E-05	    9.508084E+02	
    1.114537E-02	    1.762349E-03	    1.605833E-02	   -1.000000E+00	    1.600001E-03	    1.600000E-03	    8.010000E+02	    4.997583E-09	    9.203398E-06	    1.475097E+06	    1.568738E+06	    1.000000E+00	    1.040827E-05	    9.612011E+02	
    1.134440E-02	    1.280227E-03	    1.185777E-02	   -1.000000E+00	    1.600000E-03	    1.600000E-03	    8.010000E+02	    1.398424E-09	    4.881333E-06	    2.795966E+06	    1.622106E+06	    1.000000E+00	    7.560018E-06	    9.797679E+02	
    1.148357E-02	    9.031409E-04	    8.524704E-03	   -1.000000E+00	    1.600000E-03	    1.600000E-03	    8.010000E+02	    3.521796E-10	    2.470621E-06	    5.619200E+06	    1.685533E+06	    1.000000E+00	    5.332753E-06	    1.007108E+03	
    1.157887E-02	    6.201053E-04	    5.972899E-03	   -1.000000E+00	    1.600000E-03	    1.600000E-03	    8.010000E+02	    8.029095E-11	    1.194946E-06	    1.192104E+07	    1.755932E+06	    1.000000E+00	    3.661269E-06	    1.041101E+03	
    1.164297E-02	    4.155590E-04	    4.072298E-03	   -1.000000E+00	    1.600000E-03	    1.600000E-03	    8.010000E+02	    1.659187E-11	    5.499022E-07	    2.654745E+07	    1.818058E+06	    1.000000E+00	    2.453451E-06	    1.072320E+03	
    1.168540E-02	    2.727232E-04	    2.683206E-03	   -1.000000E+00	    1.600000E-03	    1.600000E-03	    8.010000E+02	    3.081830E-12	    2.371649E-07	    6.164166E+07	    1.832920E+06	    1.000000E+00	    1.610095E-06	    1.077390E+03	
    1.171306E-02	    1.759689E-04	    1.679644E-03	   -1.000000E+00	    1.600000E-03	    1.600000E-03	    8.010000E+02	    5.009610E-13	    9.260582E-08	    1.480699E+08	    1.725441E+06	    1.000000E+00	    1.038856E-06	    1.012331E+03	
    1.173085E-02	    1.121209E-04	    9.456078E-04	   -1.000000E+00	    1.600000E-03	    1.600000E-03	    8.010000E+02	    6.431950E-14	    2.928797E-08	    3.647365E+08	    1.347205E+06	    1.000000E+00	    6.619103E-07	    7.895037E+02	
    1.174213E-02	    7.088390E-05	    3.837600E-04	   -1.000000E+00	    1.600000E-03	    1.600000E-03	    8.010000E+02	    1.180892E-14	    1.345375E-08	    9.125690E+08	    5.554691E+05	    1.000000E+00	    4.184618E-07	    5.433334E+02	
    1.174609E-02	    5.628382E-05	    0.000000E+00	    0.000000E+00	    1.000000E-03	    1.000000E-03	    1.000000E+03	    0.000000E+00	    0.000000E+00	    6.984208E+05	    0.000000E+00	    1.000000E+00	    0.000000E+00	    0.000000E+00	
   -1.174535E-02	    5.607816E-05	    0.000000E+00	    0.000000E+00	    1.000000E-03	    1.000000E-03	    1.000000E+03	    0.000000E+00	    0.000000E+00	    6.984208E+05	    0.000000E+00	    1.000000E+00	    0.000000E+00	    0.000000E+00	
   -1.174120E-02	    7.062373E-05	    9.386765E-04	   -1.000000E+00	    1.600000E-03	    1.600000E-03	    8.010000E+02	    2.139639E-10	    1.865629E-07	    6.984208E+05	    3.304728E+05	    1.000000E+00	    1.386861E-06	    3.787608E+00	
   -1.172937E-02	    1.117042E-04	    2.312967E-03	   -1.000000E+00	    1.600000E-03	    1.600000E-03	    8.010000E+02	    7.332880E-14	    4.652566E-09	    5.082185E+07	    7.973733E+05	    9.475524E-04	    2.193645E-06	    5.847042E-08	
   -1.171075E-02	    1.753024E-04	    4.108228E-03	   -1.000000E+00	    1.600000E-03	    1.600000E-03	    8.010000E+02	    7.031240E-13	    1.817036E-08	    2.069970E+07	    1.020765E+06	    7.396352E-02	    3.442761E-06	    7.177243E-07	
   -1.168183E-02	    2.716607E-04	    6.562228E-03	   -1.000000E+00	    1.600000E-03	    1.600000E-03	    8.010000E+02	    5.437254E-12	    6.088626E-08	    8.969581E+06	    1.084021E+06	    1.000000E+00	    5.335556E-06	    5.894097E-06	
   -1.163755E-02	    4.138739E-04	    9.958021E-03	   -1.000000E+00	    1.600000E-03	    1.600000E-03	    8.010000E+02	    4.206075E-11	    2.028822E-07	    3.863665E+06	    1.074844E+06	    1.000000E+00	    8.129628E-06	    4.520875E-05	
   -1.157082E-02	    6.174492E-04	    1.460235E-02	   -1.000000E+00	    1.600000E-03	    1.600000E-03	    8.010000E+02	    2.975266E-10	    6.446024E-07	    1.735396E+06	    1.037578E+06	    1.000000E+00	    1.213040E-05	    3.087069E-04	
   -1.147196E-02	    8.989875E-04	    2.083435E-02	   -1.000000E+00	    1.600000E-03	    1.600000E-03	    8.010000E+02	    1.910835E-09	    1.952083E-06	    8.182908E+05	    9.952462E+05	    1.000000E+00	    1.766551E-05	    1.901751E-03	
   -1.132814E-02	    1.273802E-03	    2.896796E-02	   -1.000000E+00	    1.600002E-03	    1.600000E-03	    8.010000E+02	    1.093177E-08	    5.559302E-06	    4.073450E+05	    9.568205E+05	    1.000000E+00	    2.503836E-05	    1.045974E-02	
   -1.112339E-02	    1.752558E-03	    3.920796E-02	   -1.000000E+00	    1.600010E-03	    1.600000E-03	    8.010000E+02	    5.466064E-08	    1.467376E-05	    2.150301E+05	    9.240508E+05	    1.000000E+00	    3.446231E-05	    5.050920E-02	
   -1.083936E-02	    2.337445E-03	    5.157044E-02	   -1.000000E+00	    1.600042E-03	    1.600000E-03	    8.010000E+02	    2.354261E-07	    3.549559E-05	    1.207681E+05	    8.961534E+05	    1.000000E+00	    4.598528E-05	    2.109780E-01	
   -1.045759E-02	    3.018869E-03	    6.583034E-02	   -1.000000E+00	    1.600156E-03	    1.600000E-03	    8.010000E+02	    8.668565E-07	    7.826012E-05	    7.231457E+04	    8.718302E+05	    1.000000E+00	    5.942392E-05	    7.557517E-01	
   -9.963255E-03	    3.773998E-03	    8.131273E-02	   -1.000000E+00	    1.600483E-03	    1.600000E-03	    8.010000E+02	    2.682413E-06	    1.547140E-04	    4.619943E+04	    8.453375E+05	    1.000000E+00	    7.433349E-05	    2.267544E+00	
   -9.349690E-03	    4.568336E-03	    9.762982E-02	   -1.000000E+00	    1.601285E-03	    1.600000E-03	    8.010000E+02	    7.140452E-06	    2.805004E-04	    3.146591E+04	    8.222026E+05	    1.000000E+00	    9.003697E-05	    5.870898E+00	
   -8.622103E-03	    5.360613E-03	    1.134301E-01	   -1.000000E+00	    1.602873E-03	    1.600000E-03	    8.010000E+02	    1.596159E-05	    4.542411E-04	    2.279517E+04	    7.918235E+05	    1.000000E+00	    1.057199E-04	    1.263876E+01	
   -7.798692E-03	    6.109872E-03	    1.283793E-01	   -1.000000E+00	    1.605602E-03	    1.600000E-03	    8.010000E+02	    3.112139E-05	    6.798547E-04	    1.749805E+04	    7.623689E+05	    1.000000E+00	    1.205700E-04	    2.372598E+01	
   -6.908334E-03	    6.782496E-03	    1.417937E-01	   -1.000000E+00	    1.609576E-03	    1.600000E-03	    8.010000E+02	    5.320014E-05	    9.405213E-04	    1.416082E+04	    7.344405E+05	    1.000000E+00	    1.339167E-04	    3.907234E+01	
   -5.985567E-03	    7.356871E-03	    1.529325E-01	   -1.000000E+00	    1.614361E-03	    1.600000E-03	    8.010000E+02	    7.978210E-05	    1.196150E-03	    1.200917E+04	    7.073170E+05	    1.000000E+00	    1.453254E-04	    5.643124E+01	
   -5.064738E-03	    7.824560E-03	    1.618523E-01	   -1.000000E+00	    1.619460E-03	    1.600000E-03	    8.010000E+02	    1.081129E-04	    1.430570E-03	    1.059898E+04	    6.842972E+05	    1.000000E+00	    1.546230E-04	    7.398136E+01	
   -4.175255E-03	    8.188411E-03	    1.687663E-01	   -1.000000E+00	    1.624356E-03	    1.600000E-03	    8.010000E+02	    1.353105E-04	    1.633028E-03	    9.667064E+03	    6.664953E+05	    1.000000E+00	    1.618612E-04	    9.018382E+01	