Title="Fields"
Variables="X""Y""Velocity""Phi""Effective Viscosity""Dynamic Viscosity""Density""Eddy Viscosity""K""Omega""S"
Zone I=52 J=52 F=POINT
   -1.214864E-02	    6.022430E-05	    0.000000E+00	    0.000000E+00	    1.000000E-03	    1.000000E-03	    1.000000E+03	    0.000000E+00	    0.000000E+00	    0.000000E+00	    0.000000E+00	
   -1.214840E-02	    7.587059E-05	    0.000000E+00	    0.000000E+00	    1.000000E-03	    1.000000E-03	    1.000000E+03	    0.000000E+00	    0.000000E+00	    0.000000E+00	    0.000000E+00	
   -1.214760E-02	    1.201162E-04	    0.000000E+00	    0.000000E+00	    1.000000E-03	    1.000000E-03	    1.000000E+03	    0.000000E+00	    0.000000E+00	    0.000000E+00	    0.000000E+00	
   -1.214604E-02	    1.887791E-04	    0.000000E+00	    0.000000E+00	    1.000000E-03	    1.000000E-03	    1.000000E+03	    0.000000E+00	    0.000000E+00	    0.000000E+00	    0.000000E+00	
   -1.214292E-02	    2.931943E-04	    0.000000E+00	    0.000000E+00	    1.000000E-03	    1.000000E-03	    1.000000E+03	    0.000000E+00	    0.000000E+00	    0.000000E+00	    0.000000E+00	
   -1.213664E-02	    4.481479E-04	    0.000000E+00	    0.000000E+00	    1.000000E-03	    1.000000E-03	    1.000000E+03	    0.000000E+00	    0.000000E+00	    0.000000E+00	    0.000000E+00	
   -1.212408E-02	    6.717413E-04	    0.000000E+00	    0.000000E+00	    1.000000E-03	    1.000000E-03	    1.000000E+03	    0.000000E+00	    0.000000E+00	    0.000000E+00	    0.000000E+00	
   -1.209956E-02	    9.844691E-04	    0.000000E+00	    0.000000E+00	    1.000000E-03	    1.000000E-03	    1.000000E+03	    0.000000E+00	    0.000000E+00	    0.000000E+00	    0.000000E+00	
   -1.205344E-02	    1.407248E-03	    0.000000E+00	    0.000000E+00	    1.000000E-03	    1.000000E-03	    1.000000E+03	    0.000000E+00	    0.000000E+00	    0.000000E+00	    0.000000E+00	
   -1.197068E-02	    1.958259E-03	    0.000000E+00	    0.000000E+00	    1.000000E-03	    1.000000E-03	    1.000000E+03	    0.000000E+00	    0.000000E+00	    0.000000E+00	    0.000000E+00	
   -1.182998E-02	    2.648730E-03	    0.000000E+00	    0.000000E+00	    1.000000E-03	    1.000000E-03	    1.000000E+03	    0.000000E+00	    0.000000E+00	    0.000000E+00	    0.000000E+00	
   -1.160451E-02	    3.478208E-03	    0.000000E+00	    0.000000E+00	    1.000000E-03	    1.000000E-03	    1.000000E+03	    0.000000E+00	    0.000000E+00	    0.000000E+00	    0.000000E+00	
   -1.126508E-02	    4.430482E-03	    0.000000E+00	    0.000000E+00	    1.000000E-03	    1.000000E-03	    1.000000E+03	    0.000000E+00	    0.000000E+00	    0.000000E+00	    0.000000E+00	
   -1.078595E-02	    5.471869E-03	    0.000000E+00	    0.000000E+00	    1.000000E-03	    1.000000E-03	    1.000000E+03	    0.000000E+00	    0.000000E+00	    0.000000E+00	    0.000000E+00	
   -1.015216E-02	    6.553542E-03	    0.000000E+00	    0.000000E+00	    1.000000E-03	    1.000000E-03	    1.000000E+03	    0.000000E+00	    0.000000E+00	    0.000000E+00	    0.000000E+00	
   -9.365676E-03	    7.618437E-03	    0.000000E+00	    0.000000E+00	    1.000000E-03	    1.000000E-03	    1.000000E+03	    0.000000E+00	    0.000000E+00	    0.000000E+00	    0.000000E+00	
   -8.447592E-03	    8.611236E-03	    0.000000E+00	    0.000000E+00	    1.000000E-03	    1.000000E-03	    1.000000E+03	    0.000000E+00	    0.000000E+00	    0.000000E+00	    0.000000E+00	
   -7.434908E-03	    9.488112E-03	    0.000000E+00	    0.000000E+00	    1.000000E-03	    1.000000E-03	    1.000000E+03	    0.000000E+00	    0.000000E+00	    0.000000E+00	    0.000000E+00	
   -6.373132E-03	    1.022286E-02	    0.000000E+00	    0.000000E+00	    1.000000E-03	    1.000000E-03	    1.000000E+03	    0.000000E+00	    0.000000E+00	    0.000000E+00	    0.000000E+00	
   -5.307702E-03	    1.080785E-02	    0.000000E+00	    0.000000E+00	    1.000000E-03	    1.000000E-03	    1.000000E+03	    0.000000E+00	    0.000000E+00	    0.000000E+00	    0.000000E+00	
   -4.277189E-03	    1.125075E-02	    0.000000E+00	    0.000000E+00	    1.000000E-03	    1.000000E-03	    1.000000E+03	    0.000000E+00	    0.000000E+00	    0.000000E+00	    0.000000E+00	
   -3.309761E-03	    1.156901E-02	    0.000000E+00	    0.000000E+00	    1.000000E-03	    1.000000E-03	    1.000000E+03	    0.000000E+00	    0.000000E+00	    0.000000E+00	    0.000000E+00	
   -2.422724E-03	    1.178450E-02	    0.000000E+00	    0.000000E+00	    1.000000E-03	    1.000000E-03	    1.000000E+03	    0.000000E+00	    0.000000E+00	    0.000000E+00	    0.000000E+00	
   -1.624046E-03	    1.191947E-02	    0.000000E+00	    0.000000E+00	    1.000000E-03	    1.000000E-03	    1.000000E+03	    0.000000E+00	    0.000000E+00	    0.000000E+00	    0.000000E+00	
   -9.147101E-04	    1.199402E-02	    0.000000E+00	    0.000000E+00	    1.000000E-03	    1.000000E-03	    1.000000E+03	    0.000000E+00	    0.000000E+00	    0.000000E+00	    0.000000E+00	
   -2.910617E-04	    1.202501E-02	    0.000000E+00	    0.000000E+00	    1.000000E-03	    1.000000E-03	    1.000000E+03	    0.000000E+00	    0.000000E+00	    0.000000E+00	    0.000000E+00	
    2.910617E-04	    1.202501E-02	    0.000000E+00	    0.000000E+00	    1.000000E-03	    1.000000E-03	    1.000000E+03	    0.000000E+00	    0.000000E+00	    0.000000E+00	    0.000000E+00	
    9.147101E-04	    1.199402E-02	    0.000000E+00	    0.000000E+00	    1.000000E-03	    1.000000E-03	    1.000000E+03	    0.000000E+00	    0.000000E+00	    0.000000E+00	    0.000000E+00	
    1.624046E-03	    1.191947E-02	    0.000000E+00	    0.000000E+00	    1.000000E-03	    1.000000E-03	    1.000000E+03	    0.000000E+00	    0.000000E+00	    0.000000E+00	    0.000000E+00	
    2.422724E-03	    1.178450E-02	    0.000000E+00	    0.000000E+00	    1.000000E-03	    1.000000E-03	    1.000000E+03	    0.000000E+00	    0.000000E+00	    0.000000E+00	    0.000000E+00	
    3.309761E-03	    1.156901E-02	    0.000000E+00	    0.000000E+00	    1.000000E-03	    1.000000E-03	    1.000000E+03	    0.000000E+00	    0.000000E+00	    0.000000E+00	    0.000000E+00	
    4.277189E-03	    1.125075E-02	    0.000000E+00	    0.000000E+00	    1.000000E-03	    1.000000E-03	    1.000000E+03	    0.000000E+00	    0.000000E+00	    0.000000E+00	    0.000000E+00	
    5.307702E-03	    1.080785E-02	    0.000000E+00	    0.000000E+00	    1.000000E-03	    1.000000E-03	    1.000000E+03	    0.000000E+00	    0.000000E+00	    0.000000E+00	    0.000000E+00	
    6.373132E-03	    1.022286E-02	    0.000000E+00	    0.000000E+00	    1.000000E-03	    1.000000E-03	    1.000000E+03	    0.000000E+00	    0.000000E+00	    0.000000E+00	    0.000000E+00	
    7.434908E-03	    9.488112E-03	    0.000000E+00	    0.000000E+00	    1.000000E-03	    1.000000E-03	    1.000000E+03	    0.000000E+00	    0.000000E+00	    0.000000E+00	    0.000000E+00	
    8.447592E-03	    8.611236E-03	    0.000000E+00	    0.000000E+00	    1.000000E-03	    1.000000E-03	    1.000000E+03	    0.000000E+00	    0.000000E+00	    0.000000E+00	    0.000000E+00	
    9.365676E-03	    7.618437E-03	    0.000000E+00	    0.000000E+00	    1.000000E-03	    1.000000E-03	    1.000000E+03	    0.000000E+00	    0.000000E+00	    0.000000E+00	    0.000000E+00	
    1.015216E-02	    6.553542E-03	    0.000000E+00	    0.000000E+00	    1.000000E-03	    1.000000E-03	    1.000000E+03	    0.000000E+00	    0.000000E+00	    0.000000E+00	    0.000000E+00	
    1.078595E-02	    5.471869E-03	    0.000000E+00	    0.000000E+00	    1.000000E-03	    1.000000E-03	    1.000000E+03	    0.000000E+00	    0.000000E+00	    0.000000E+00	    0.000000E+00	
    1.126508E-02	    4.430482E-03	    0.000000E+00	    0.000000E+00	    1.000000E-03	    1.000000E-03	    1.000000E+03	    0.000000E+00	    0.000000E+00	    0.000000E+00	    0.000000E+00	
    1.160451E-02	    3.478208E-03	    0.000000E+00	    0.000000E+00	    1.000000E-03	    1.000000E-03	    1.000000E+03	    0.000000E+00	    0.000000E+00	    0.000000E+00	    0.000000E+00	
    1.182998E-02	    2.648730E-03	    0.000000E+00	    0.000000E+00	    1.000000E-03	    1.000000E-03	    1.000000E+03	    0.000000E+00	    0.000000E+00	    0.000000E+00	    0.000000E+00	
    1.197068E-02	    1.958259E-03	    0.000000E+00	    0.000000E+00	    1.000000E-03	    1.000000E-03	    1.000000E+03	    0.000000E+00	    0.000000E+00	    0.000000E+00	    0.000000E+00	
    1.205344E-02	    1.407248E-03	    0.000000E+00	    0.000000E+00	    1.000000E-03	    1.000000E-03	    1.000000E+03	    0.000000E+00	    0.000000E+00	    0.000000E+00	    0.000000E+00	
    1.209956E-02	    9.844691E-04	    0.000000E+00	    0.000000E+00	    1.000000E-03	    1.000000E-03	    1.000000E+03	    0.000000E+00	    0.000000E+00	    0.000000E+00	    0.000000E+00	
    1.212408E-02	    6.717413E-04	    0.000000E+00	    0.000000E+00	    1.000000E-03	    1.000000E-03	    1.000000E+03	    0.000000E+00	    0.000000E+00	    0.000000E+00	    0.000000E+00	
    1.213664E-02	    4.481479E-04	    0.000000E+00	    0.000000E+00	    1.000000E-03	    1.000000E-03	    1.000000E+03	    0.000000E+00	    0.000000E+00	    0.000000E+00	    0.000000E+00	
    1.214292E-02	    2.931943E-04	    0.000000E+00	    0.000000E+00	    1.000000E-03	    1.000000E-03	    1.000000E+03	    0.000000E+00	    0.000000E+00	    0.000000E+00	    0.000000E+00	
    1.214604E-02	    1.887791E-04	    0.000000E+00	    0.000000E+00	    1.000000E-03	    1.000000E-03	    1.000000E+03	    0.000000E+00	    0.000000E+00	    0.000000E+00	    0.000000E+00	
    1.214760E-02	    1.201162E-04	    0.000000E+00	    0.000000E+00	    1.000000E-03	    1.000000E-03	    1.000000E+03	    0.000000E+00	    0.000000E+00	    0.000000E+00	    0.000000E+00	
    1.214840E-02	    7.587059E-05	    0.000000E+00	    0.000000E+00	    1.000000E-03	    1.000000E-03	    1.000000E+03	    0.000000E+00	    0.000000E+00	    0.000000E+00	    0.000000E+00	
    1.214864E-02	    6.022430E-05	    0.000000E+00	    0.000000E+00	    1.000000E-03	    1.000000E-03	    1.000000E+03	    0.000000E+00	    0.000000E+00	    0.000000E+00	    0.000000E+00	
   -1.214823E-02	    6.021683E-05	    0.000000E+00	    0.000000E+00	    1.000000E-03	    1.000000E-03	    1.000000E+03	    0.000000E+00	    0.000000E+00	    0.000000E+00	    0.000000E+00	
   -1.214788E-02	    7.586052E-05	    1.925509E-04	   -1.000000E+00	    1.000921E-03	    1.000000E-03	    1.000000E+03	    4.185144E-06	    1.319691E-03	    3.153275E+05	    1.391803E+05	
   -1.214679E-02	    1.200973E-04	    5.896214E-04	   -1.000000E+00	    1.000972E-03	    1.000000E-03	    1.000000E+03	    4.416560E-06	    5.863735E-04	    1.327670E+05	    5.263732E+05	
   -1.214476E-02	    1.887422E-04	    1.106895E-03	   -1.000000E+00	    1.001768E-03	    1.000000E-03	    1.000000E+03	    8.034437E-06	    7.856490E-04	    9.778519E+04	    7.503579E+05	
   -1.214094E-02	    2.931200E-04	    1.833182E-03	   -1.000000E+00	    1.003207E-03	    1.000000E-03	    1.000000E+03	    1.457503E-05	    1.071911E-03	    7.354432E+04	    8.518761E+05	
   -1.213361E-02	    4.479957E-04	    2.885900E-03	   -1.000000E+00	    1.005566E-03	    1.000000E-03	    1.000000E+03	    2.530159E-05	    1.382741E-03	    5.465038E+04	    9.012916E+05	
   -1.211955E-02	    6.714295E-04	    4.403971E-03	   -1.000000E+00	    1.009293E-03	    1.000000E-03	    1.000000E+03	    4.224271E-05	    1.715702E-03	    4.061533E+04	    9.302757E+05	
   -1.209293E-02	    9.838410E-04	    6.541700E-03	   -1.000000E+00	    1.014933E-03	    1.000000E-03	    1.000000E+03	    6.787729E-05	    2.062826E-03	    3.039052E+04	    9.493686E+05	
   -1.204401E-02	    1.406019E-03	    9.454486E-03	   -1.000000E+00	    1.023079E-03	    1.000000E-03	    1.000000E+03	    1.049035E-04	    2.411897E-03	    2.299158E+04	    9.605471E+05	
   -1.195765E-02	    1.955950E-03	    1.327459E-02	   -1.000000E+00	    1.034289E-03	    1.000000E-03	    1.000000E+03	    1.558603E-04	    2.750322E-03	    1.764608E+04	    9.624288E+05	
   -1.181256E-02	    2.644593E-03	    1.807906E-02	   -1.000000E+00	    1.048969E-03	    1.000000E-03	    1.000000E+03	    2.225857E-04	    3.067176E-03	    1.377975E+04	    9.525843E+05	
   -1.158209E-02	    3.471175E-03	    2.385613E-02	   -1.000000E+00	    1.067230E-03	    1.000000E-03	    1.000000E+03	    3.055910E-04	    3.354206E-03	    1.097613E+04	    9.295447E+05	
   -1.123737E-02	    4.419185E-03	    3.047801E-02	   -1.000000E+00	    1.088774E-03	    1.000000E-03	    1.000000E+03	    4.035166E-04	    3.606369E-03	    8.937352E+03	    8.946643E+05	
   -1.075321E-02	    5.454763E-03	    3.769402E-02	   -1.000000E+00	    1.112836E-03	    1.000000E-03	    1.000000E+03	    5.128898E-04	    3.821880E-03	    7.451661E+03	    8.524089E+05	
   -1.011527E-02	    6.529136E-03	    4.515443E-02	   -1.000000E+00	    1.138233E-03	    1.000000E-03	    1.000000E+03	    6.283327E-04	    4.001181E-03	    6.367933E+03	    8.084847E+05	
   -9.326135E-03	    7.585587E-03	    5.246056E-02	   -1.000000E+00	    1.163528E-03	    1.000000E-03	    1.000000E+03	    7.433076E-04	    4.145938E-03	    5.577688E+03	    7.675377E+05	
   -8.407302E-03	    8.569391E-03	    5.923327E-02	   -1.000000E+00	    1.187290E-03	    1.000000E-03	    1.000000E+03	    8.513179E-04	    4.259011E-03	    5.002844E+03	    7.322162E+05	
   -7.395856E-03	    9.437422E-03	    6.517976E-02	   -1.000000E+00	    1.208371E-03	    1.000000E-03	    1.000000E+03	    9.471413E-04	    4.344472E-03	    4.586931E+03	    7.034339E+05	
   -6.337080E-03	    1.016411E-02	    7.013357E-02	   -1.000000E+00	    1.226074E-03	    1.000000E-03	    1.000000E+03	    1.027609E-03	    4.407120E-03	    4.288714E+03	    6.810020E+05	
   -5.275969E-03	    1.074227E-02	    7.405693E-02	   -1.000000E+00	    1.240180E-03	    1.000000E-03	    1.000000E+03	    1.091726E-03	    4.451772E-03	    4.077735E+03	    6.641743E+05	
   -4.250575E-03	    1.117974E-02	    7.701373E-02	   -1.000000E+00	    1.250859E-03	    1.000000E-03	    1.000000E+03	    1.140269E-03	    4.482721E-03	    3.931285E+03	    6.520029E+05	
   -3.288589E-03	    1.149396E-02	    7.913035E-02	   -1.000000E+00	    1.258530E-03	    1.000000E-03	    1.000000E+03	    1.175135E-03	    4.503502E-03	    3.832327E+03	    6.435381E+05	
   -2.406939E-03	    1.170666E-02	    8.055899E-02	   -1.000000E+00	    1.263720E-03	    1.000000E-03	    1.000000E+03	    1.198728E-03	    4.516871E-03	    3.768053E+03	    6.379266E+05	
   -1.613344E-03	    1.183985E-02	    8.145107E-02	   -1.000000E+00	    1.266968E-03	    1.000000E-03	    1.000000E+03	    1.213491E-03	    4.524915E-03	    3.728841E+03	    6.344494E+05	
   -9.086451E-04	    1.191341E-02	    8.194177E-02	   -1.000000E+00	    1.268759E-03	    1.000000E-03	    1.000000E+03	    1.221631E-03	    4.529182E-03	    3.707488E+03	    6.325254E+05	
   -2.891269E-04	    1.194400E-02	    8.214336E-02	   -1.000000E+00	    1.269499E-03	    1.000000E-03	    1.000000E+03	    1.224997E-03	    4.530803E-03	    3.698625E+03	    6.316981E+05	
    2.891269E-04	    1.194400E-02	    8.214336E-02	   -1.000000E+00	    1.269499E-03	    1.000000E-03	    1.000000E+03	    1.224997E-03	    4.530803E-03	    3.698625E+03	    6.316981E+05	
    9.086451E-04	    1.191341E-02	    8.194177E-02	   -1.000000E+00	    1.268759E-03	    1.000000E-03	    1.000000E+03	    1.221631E-03	    4.529182E-03	    3.707488E+03	    6.325254E+05	
    1.613344E-03	    1.183985E-02	    8.145107E-02	   -1.000000E+00	    1.266968E-03	    1.000000E-03	    1.000000E+03	    1.213491E-03	    4.524915E-03	    3.728841E+03	    6.344494E+05	
    2.406939E-03	    1.170666E-02	    8.055899E-02	   -1.000000E+00	    1.263720E-03	    1.000000E-03	    1.000000E+03	    1.198728E-03	    4.516871E-03	    3.768053E+03	    6.379266E+05	
    3.288589E-03	    1.149396E-02	    7.913035E-02	   -1.000000E+00	    1.258530E-03	    1.000000E-03	    1.000000E+03	    1.175135E-03	    4.503502E-03	    3.832327E+03	    6.435381E+05	
    4.250575E-03	    1.117974E-02	    7.701373E-02	   -1.000000E+00	    1.250859E-03	    1.000000E-03	    1.000000E+03	    1.140269E-03	    4.482721E-03	    3.931285E+03	    6.520029E+05	
    5.275969E-03	    1.074227E-02	    7.405693E-02	   -1.000000E+00	    1.240180E-03	    1.000000E-03	    1.000000E+03	    1.091726E-03	    4.451772E-03	    4.077735E+03	    6.641743E+05	
    6.337080E-03	    1.016411E-02	    7.013357E-02	   -1.000000E+00	    1.226074E-03	    1.000000E-03	    1.000000E+03	    1.027609E-03	    4.407120E-03	    4.288714E+03	    6.810020E+05	
    7.395856E-03	    9.437422E-03	    6.517976E-02	   -1.000000E+00	    1.208371E-03	    1.000000E-03	    1.000000E+03	    9.471413E-04	    4.344472E-03	    4.586931E+03	    7.034339E+05	
    8.407302E-03	    8.569391E-03	    5.923327E-02	   -1.000000E+00	    1.187290E-03	    1.000000E-03	    1.000000E+03	    8.513179E-04	    4.259011E-03	    5.002844E+03	    7.322162E+05	
    9.326135E-03	    7.585587E-03	    5.246056E-02	   -1.000000E+00	    1.163528E-03	    1.000000E-03	    1.000000E+03	    7.433076E-04	    4.145938E-03	    5.577688E+03	    7.675377E+05	
    1.011527E-02	    6.529136E-03	    4.515443E-02	   -1.000000E+00	    1.138233E-03	    1.000000E-03	    1.000000E+03	    6.283327E-04	    4.001181E-03	    6.367933E+03	    8.084847E+05	
    1.075321E-02	    5.454763E-03	    3.769402E-02	   -1.000000E+00	    1.112836E-03	    1.000000E-03	    1.000000E+03	    5.128898E-04	    3.821880E-03	    7.451661E+03	    8.524089E+05	
    1.123737E-02	    4.419185E-03	    3.047801E-02	   -1.000000E+00	    1.088774E-03	    1.000000E-03	    1.000000E+03	    4.035166E-04	    3.606369E-03	    8.937352E+03	    8.946643E+05	
    1.158209E-02	    3.471175E-03	    2.385613E-02	   -1.000000E+00	    1.067230E-03	    1.000000E-03	    1.000000E+03	    3.055910E-04	    3.354206E-03	    1.097613E+04	    9.295447E+05	
    1.181256E-02	    2.644593E-03	    1.807906E-02	   -1.000000E+00	    1.048969E-03	    1.000000E-03	    1.000000E+03	    2.225857E-04	    3.067176E-03	    1.377975E+04	    9.525843E+05	
    1.195765E-02	    1.955950E-03	    1.327459E-02	   -1.000000E+00	    1.034289E-03	    1.000000E-03	    1.000000E+03	    1.558603E-04	    2.750322E-03	    1.764608E+04	    9.624288E+05	
    1.204401E-02	    1.406019E-03	    9.454486E-03	   -1.000000E+00	    1.023079E-03	    1.000000E-03	    1.000000E+03	    1.049035E-04	    2.411897E-03	    2.299158E+04	    9.605471E+05	
    1.209293E-02	    9.838410E-04	    6.541700E-03	   -1.000000E+00	    1.014933E-03	    1.000000E-03	    1.000000E+03	    6.787729E-05	    2.062826E-03	    3.039052E+04	    9.493686E+05	
    1.211955E-02	    6.714295E-04	    4.403971E-03	   -1.000000E+00	    1.009293E-03	    1.000000E-03	    1.000000E+03	    4.224271E-05	    1.715702E-03	    4.061533E+04	    9.302757E+05	
    1.213361E-02	    4.479957E-04	    2.885900E-03	   -1.000000E+00	    1.005566E-03	    1.000000E-03	    1.000000E+03	    2.530159E-05	    1.382741E-03	    5.465038E+04	    9.012916E+05	
    1.214094E-02	    2.931200E-04	    1.833182E-03	   -1.000000E+00	    1.003207E-03	    1.000000E-03	    1.000000E+03	    1.457503E-05	    1.071911E-03	    7.354432E+04	    8.518761E+05	
    1.214476E-02	    1.887422E-04	    1.106895E-03	   -1.000000E+00	    1.001768E-03	    1.000000E-03	    1.000000E+03	    8.034437E-06	    7.856490E-04	    9.778519E+04	    7.503579E+05	
    1.214679E-02	    1.200973E-04	    5.896214E-04	   -1.000000E+00	    1.000972E-03	    1.000000E-03	    1.000000E+03	    4.416560E-06	    5.863735E-04	    1.327670E+05	    5.263732E+05	
    1.214788E-02	    7.586052E-05	    1.925509E-04	   -1.000000E+00	    1.000921E-03	    1.000000E-03	    1.000000E+03	    4.185144E-06	    1.319691E-03	    3.153275E+05	    1.391803E+05	
    1.214823E-02	    6.021683E-05	    0.000000E+00	    0.000000E+00	    1.000000E-03	    1.000000E-03	    1.000000E+03	    0.000000E+00	    0.000000E+00	    0.000000E+00	    0.000000E+00	
   -1.214729E-02	    6.018900E-05	    0.000000E+00	    0.000000E+00	    1.000000E-03	    1.000000E-03	    1.000000E+03	    0.000000E+00	    0.000000E+00	    0.000000E+00	    0.000000E+00	
   -1.214670E-02	    7.582392E-05	    6.323939E-04	   -1.000000E+00	    1.028113E-03	    1.000000E-03	    1.000000E+03	    1.277868E-04	    1.322708E-03	    1.035089E+04	    1.364659E+05	
   -1.214491E-02	    1.200325E-04	    1.952233E-03	   -1.000000E+00	    1.001014E-03	    1.000000E-03	    1.000000E+03	    4.608450E-06	    5.186904E-04	    1.125520E+05	    5.259751E+05	
   -1.214181E-02	    1.886237E-04	    3.662602E-03	   -1.000000E+00	    1.001800E-03	    1.000000E-03	    1.000000E+03	    8.183230E-06	    6.464214E-04	    7.899342E+04	    7.486693E+05	
   -1.213636E-02	    2.928967E-04	    6.058680E-03	   -1.000000E+00	    1.003296E-03	    1.000000E-03	    1.000000E+03	    1.498406E-05	    8.316100E-04	    5.549965E+04	    8.482877E+05	
   -1.212662E-02	    4.475651E-04	    9.519458E-03	   -1.000000E+00	    1.005849E-03	    1.000000E-03	    1.000000E+03	    2.658511E-05	    1.012993E-03	    3.810378E+04	    8.945865E+05	
   -1.210908E-02	    6.705914E-04	    1.448199E-02	   -1.000000E+00	    1.010170E-03	    1.000000E-03	    1.000000E+03	    4.622765E-05	    1.197941E-03	    2.591395E+04	    9.180334E+05	
   -1.207763E-02	    9.822180E-04	    2.140718E-02	   -1.000000E+00	    1.017546E-03	    1.000000E-03	    1.000000E+03	    7.975250E-05	    1.406540E-03	    1.763631E+04	    9.265858E+05	
   -1.202224E-02	    1.402938E-03	    3.070611E-02	   -1.000000E+00	    1.030394E-03	    1.000000E-03	    1.000000E+03	    1.381533E-04	    1.675325E-03	    1.212656E+04	    9.168662E+05	
   -1.192760E-02	    1.950285E-03	    4.261422E-02	   -1.000000E+00	    1.053115E-03	    1.000000E-03	    1.000000E+03	    2.414319E-04	    2.054494E-03	    8.509620E+03	    8.795947E+05	
   -1.177247E-02	    2.634602E-03	    5.702934E-02	   -1.000000E+00	    1.092540E-03	    1.000000E-03	    1.000000E+03	    4.206368E-04	    2.589830E-03	    6.156926E+03	    8.088191E+05	
   -1.153055E-02	    3.454397E-03	    7.339789E-02	   -1.000000E+00	    1.156431E-03	    1.000000E-03	    1.000000E+03	    7.110485E-04	    3.292939E-03	    4.631102E+03	    7.122235E+05	
   -1.117378E-02	    4.392487E-03	    9.077751E-02	   -1.000000E+00	    1.249599E-03	    1.000000E-03	    1.000000E+03	    1.134541E-03	    4.122448E-03	    3.633582E+03	    6.074205E+05	
   -1.067819E-02	    5.414629E-03	    1.080932E-01	   -1.000000E+00	    1.370560E-03	    1.000000E-03	    1.000000E+03	    1.684365E-03	    4.999532E-03	    2.968200E+03	    5.100102E+05	
   -1.003092E-02	    6.472204E-03	    1.244103E-01	   -1.000000E+00	    1.511515E-03	    1.000000E-03	    1.000000E+03	    2.325069E-03	    5.842641E-03	    2.512889E+03	    4.281239E+05	
   -9.235913E-03	    7.509312E-03	    1.390646E-01	   -1.000000E+00	    1.660941E-03	    1.000000E-03	    1.000000E+03	    3.004279E-03	    6.592275E-03	    2.194295E+03	    3.635939E+05	
   -8.315535E-03	    8.472593E-03	    1.516712E-01	   -1.000000E+00	    1.806847E-03	    1.000000E-03	    1.000000E+03	    3.667486E-03	    7.218250E-03	    1.968174E+03	    3.148326E+05	
   -7.307050E-03	    9.320514E-03	    1.620878E-01	   -1.000000E+00	    1.939403E-03	    1.000000E-03	    1.000000E+03	    4.270014E-03	    7.715228E-03	    1.806839E+03	    2.790203E+05	
   -6.255204E-03	    1.002892E-02	    1.703658E-01	   -1.000000E+00	    2.052356E-03	    1.000000E-03	    1.000000E+03	    4.783435E-03	    8.093801E-03	    1.692048E+03	    2.532733E+05	
   -5.203978E-03	    1.059161E-02	    1.766944E-01	   -1.000000E+00	    2.143172E-03	    1.000000E-03	    1.000000E+03	    5.196238E-03	    8.372067E-03	    1.611178E+03	    2.351121E+05	
   -4.190247E-03	    1.101682E-02	    1.813432E-01	   -1.000000E+00	    2.212312E-03	    1.000000E-03	    1.000000E+03	    5.510508E-03	    8.569785E-03	    1.555172E+03	    2.225657E+05	
   -3.240621E-03	    1.132195E-02	    1.846117E-01	   -1.000000E+00	    2.262143E-03	    1.000000E-03	    1.000000E+03	    5.737015E-03	    8.705198E-03	    1.517374E+03	    2.141272E+05	
   -2.371191E-03	    1.152836E-02	    1.867909E-01	   -1.000000E+00	    2.295934E-03	    1.000000E-03	    1.000000E+03	    5.890607E-03	    8.793739E-03	    1.492841E+03	    2.086663E+05	
   -1.589115E-03	    1.165755E-02	    1.881407E-01	   -1.000000E+00	    2.317103E-03	    1.000000E-03	    1.000000E+03	    5.986832E-03	    8.847813E-03	    1.477879E+03	    2.053426E+05	
   -8.949153E-04	    1.172889E-02	    1.888792E-01	   -1.000000E+00	    2.328783E-03	    1.000000E-03	    1.000000E+03	    6.039921E-03	    8.877070E-03	    1.469733E+03	    2.035341E+05	
   -2.847470E-04	    1.175854E-02	    1.891811E-01	   -1.000000E+00	    2.333607E-03	    1.000000E-03	    1.000000E+03	    6.061850E-03	    8.888846E-03	    1.466359E+03	    2.027827E+05	
    2.847470E-04	    1.175854E-02	    1.891811E-01	   -1.000000E+00	    2.333607E-03	    1.000000E-03	    1.000000E+03	    6.061850E-03	    8.888846E-03	    1.466359E+03	    2.027827E+05	
    8.949153E-04	    1.172889E-02	    1.888792E-01	   -1.000000E+00	    2.328783E-03	    1.000000E-03	    1.000000E+03	    6.039921E-03	    8.877070E-03	    1.469733E+03	    2.035341E+05	
    1.589115E-03	    1.165755E-02	    1.881407E-01	   -1.000000E+00	    2.317103E-03	    1.000000E-03	    1.000000E+03	    5.986832E-03	    8.847813E-03	    1.477879E+03	    2.053426E+05	
    2.371191E-03	    1.152836E-02	    1.867909E-01	   -1.000000E+00	    2.295934E-03	    1.000000E-03	    1.000000E+03	    5.890607E-03	    8.793739E-03	    1.492841E+03	    2.086663E+05	
    3.240621E-03	    1.132195E-02	    1.846117E-01	   -1.000000E+00	    2.262143E-03	    1.000000E-03	    1.000000E+03	    5.737015E-03	    8.705198E-03	    1.517374E+03	    2.141272E+05	
    4.190247E-03	    1.101682E-02	    1.813432E-01	   -1.000000E+00	    2.212312E-03	    1.000000E-03	    1.000000E+03	    5.510508E-03	    8.569785E-03	    1.555172E+03	    2.225657E+05	
    5.203978E-03	    1.059161E-02	    1.766944E-01	   -1.000000E+00	    2.143172E-03	    1.000000E-03	    1.000000E+03	    5.196238E-03	    8.372067E-03	    1.611178E+03	    2.351121E+05	
    6.255204E-03	    1.002892E-02	    1.703658E-01	   -1.000000E+00	    2.052356E-03	    1.000000E-03	    1.000000E+03	    4.783435E-03	    8.093801E-03	    1.692048E+03	    2.532733E+05	
    7.307050E-03	    9.320514E-03	    1.620878E-01	   -1.000000E+00	    1.939403E-03	    1.000000E-03	    1.000000E+03	    4.270014E-03	    7.715228E-03	    1.806839E+03	    2.790203E+05	
    8.315535E-03	    8.472593E-03	    1.516712E-01	   -1.000000E+00	    1.806847E-03	    1.000000E-03	    1.000000E+03	    3.667486E-03	    7.218250E-03	    1.968174E+03	    3.148326E+05	
    9.235913E-03	    7.509312E-03	    1.390646E-01	   -1.000000E+00	    1.660941E-03	    1.000000E-03	    1.000000E+03	    3.004279E-03	    6.592275E-03	    2.194295E+03	    3.635939E+05	
    1.003092E-02	    6.472204E-03	    1.244103E-01	   -1.000000E+00	    1.511515E-03	    1.000000E-03	    1.000000E+03	    2.325069E-03	    5.842641E-03	    2.512889E+03	    4.281239E+05	
    1.067819E-02	    5.414629E-03	    1.080932E-01	   -1.000000E+00	    1.370560E-03	    1.000000E-03	    1.000000E+03	    1.684365E-03	    4.999532E-03	    2.968200E+03	    5.100102E+05	
    1.117378E-02	    4.392487E-03	    9.077751E-02	   -1.000000E+00	    1.249599E-03	    1.000000E-03	    1.000000E+03	    1.134541E-03	    4.122448E-03	    3.633582E+03	    6.074205E+05	
    1.153055E-02	    3.454397E-03	    7.339789E-02	   -1.000000E+00	    1.156431E-03	    1.000000E-03	    1.000000E+03	    7.110485E-04	    3.292939E-03	    4.631102E+03	    7.122235E+05	
    1.177247E-02	    2.634602E-03	    5.702934E-02	   -1.000000E+00	    1.092540E-03	    1.000000E-03	    1.000000E+03	    4.206368E-04	    2.589830E-03	    6.156926E+03	    8.088191E+05	
    1.192760E-02	    1.950285E-03	    4.261422E-02	   -1.000000E+00	    1.053115E-03	    1.000000E-03	    1.000000E+03	    2.414319E-04	    2.054494E-03	    8.509620E+03	    8.795947E+05	
    1.202224E-02	    1.402938E-03	    3.070611E-02	   -1.000000E+00	    1.030394E-03	    1.000000E-03	    1.000000E+03	    1.381533E-04	    1.675325E-03	    1.212656E+04	    9.168662E+05	
    1.207763E-02	    9.822180E-04	    2.140718E-02	   -1.000000E+00	    1.017546E-03	    1.000000E-03	    1.000000E+03	    7.975250E-05	    1.406540E-03	    1.763631E+04	    9.265858E+05	
    1.210908E-02	    6.705914E-04	    1.448199E-02	   -1.000000E+00	    1.010170E-03	    1.000000E-03	    1.000000E+03	    4.622765E-05	    1.197941E-03	    2.591395E+04	    9.180334E+05	
    1.212662E-02	    4.475651E-04	    9.519458E-03	   -1.000000E+00	    1.005849E-03	    1.000000E-03	    1.000000E+03	    2.658511E-05	    1.012993E-03	    3.810378E+04	    8.945865E+05	
    1.213636E-02	    2.928967E-04	    6.058680E-03	   -1.000000E+00	    1.003296E-03	    1.000000E-03	    1.000000E+03	    1.498406E-05	    8.316100E-04	    5.549965E+04	    8.482877E+05	
    1.214181E-02	    1.886237E-04	    3.662602E-03	   -1.000000E+00	    1.001800E-03	    1.000000E-03	    1.000000E+03	    8.183230E-06	    6.464214E-04	    7.899342E+04	    7.486693E+05	
    1.214491E-02	    1.200325E-04	    1.952233E-03	   -1.000000E+00	    1.001014E-03	    1.000000E-03	    1.000000E+03	    4.608450E-06	    5.186904E-04	    1.125520E+05	    5.259751E+05	
    1.214670E-02	    7.582392E-05	    6.323939E-04	   -1.000000E+00	    1.028113E-03	    1.000000E-03	    1.000000E+03	    1.277868E-04	    1.322708E-03	    1.035089E+04	    1.364659E+05	
    1.214729E-02	    6.018900E-05	    0.000000E+00	    0.000000E+00	    1.000000E-03	    1.000000E-03	    1.000000E+03	    0.000000E+00	    0.000000E+00	    0.000000E+00	    0.000000E+00	
   -1.214606E-02	    6.013027E-05	    0.000000E+00	    0.000000E+00	    1.000000E-03	    1.000000E-03	    1.000000E+03	    0.000000E+00	    0.000000E+00	    0.000000E+00	    0.000000E+00	
   -1.214514E-02	    7.574794E-05	    1.199265E-03	   -1.000000E+00	    1.028188E-03	    1.000000E-03	    1.000000E+03	    1.281262E-04	    1.330048E-03	    1.038076E+04	    1.377501E+05	