Title="Fields"
Variables="X""Y""Velocity""Phi""Effective Viscosity""Dynamic Viscosity""Density""Eddy Viscosity""K""Omega""S"
Zone I=52 J=52 F=POINT
   -1.214864E-02	    6.022430E-05	    0.000000E+00	    0.000000E+00	    1.000000E-03	    1.000000E-03	    1.000000E+03	    0.000000E+00	    0.000000E+00	    0.000000E+00	    0.000000E+00	
   -1.214840E-02	    7.587059E-05	    0.000000E+00	    0.000000E+00	    1.000000E-03	    1.000000E-03	    1.000000E+03	    0.000000E+00	    0.000000E+00	    0.000000E+00	    0.000000E+00	
   -1.214760E-02	    1.201162E-04	    0.000000E+00	    0.000000E+00	    1.000000E-03	    1.000000E-03	    1.000000E+03	    0.000000E+00	    0.000000E+00	    0.000000E+00	    0.000000E+00	
   -1.214604E-02	    1.887791E-04	    0.000000E+00	    0.000000E+00	    1.000000E-03	    1.000000E-03	    1.000000E+03	    0.000000E+00	    0.000000E+00	    0.000000E+00	    0.000000E+00	
   -1.214292E-02	    2.931943E-04	    0.000000E+00	    0.000000E+00	    1.000000E-03	    1.000000E-03	    1.000000E+03	    0.000000E+00	    0.000000E+00	    0.000000E+00	    0.000000E+00	
   -1.213664E-02	    4.481479E-04	    0.000000E+00	    0.000000E+00	    1.000000E-03	    1.000000E-03	    1.000000E+03	    0.000000E+00	    0.000000E+00	    0.000000E+00	    0.000000E+00	
   -1.212408E-02	    6.717413E-04	    0.000000E+00	    0.000000E+00	    1.000000E-03	    1.000000E-03	    1.000000E+03	    0.000000E+00	    0.000000E+00	    0.000000E+00	    0.000000E+00	
   -1.209956E-02	    9.844691E-04	    0.000000E+00	    0.000000E+00	    1.000000E-03	    1.000000E-03	    1.000000E+03	    0.000000E+00	    0.000000E+00	    0.000000E+00	    0.000000E+00	
   -1.205344E-02	    1.407248E-03	    0.000000E+00	    0.000000E+00	    1.000000E-03	    1.000000E-03	    1.000000E+03	    0.000000E+00	    0.000000E+00	    0.000000E+00	    0.000000E+00	
   -1.197068E-02	    1.958259E-03	    0.000000E+00	    0.000000E+00	    1.000000E-03	    1.000000E-03	    1.000000E+03	    0.000000E+00	    0.000000E+00	    0.000000E+00	    0.000000E+00	
   -1.182998E-02	    2.648730E-03	    0.000000E+00	    0.000000E+00	    1.000000E-03	    1.000000E-03	    1.000000E+03	    0.000000E+00	    0.000000E+00	    0.000000E+00	    0.000000E+00	
   -1.160451E-02	    3.478208E-03	    0.000000E+00	    0.000000E+00	    1.000000E-03	    1.000000E-03	    1.000000E+03	    0.000000E+00	    0.000000E+00	    0.000000E+00	    0.000000E+00	
   -1.126508E-02	    4.430482E-03	    0.000000E+00	    0.000000E+00	    1.000000E-03	    1.000000E-03	    1.000000E+03	    0.000000E+00	    0.000000E+00	    0.000000E+00	    0.000000E+00	
   -1.078595E-02	    5.471869E-03	    0.000000E+00	    0.000000E+00	    1.000000E-03	    1.000000E-03	    1.000000E+03	    0.000000E+00	    0.000000E+00	    0.000000E+00	    0.000000E+00	
   -1.015216E-02	    6.553541E-03	    0.000000E+00	    0.000000E+00	    1.000000E-03	    1.000000E-03	    1.000000E+03	    0.000000E+00	    0.000000E+00	    0.000000E+00	    0.000000E+00	
   -9.365676E-03	    7.618437E-03	    0.000000E+00	    0.000000E+00	    1.000000E-03	    1.000000E-03	    1.000000E+03	    0.000000E+00	    0.000000E+00	    0.000000E+00	    0.000000E+00	
   -8.447592E-03	    8.611236E-03	    0.000000E+00	    0.000000E+00	    1.000000E-03	    1.000000E-03	    1.000000E+03	    0.000000E+00	    0.000000E+00	    0.000000E+00	    0.000000E+00	
   -7.434908E-03	    9.488112E-03	    0.000000E+00	    0.000000E+00	    1.000000E-03	    1.000000E-03	    1.000000E+03	    0.000000E+00	    0.000000E+00	    0.000000E+00	    0.000000E+00	
   -6.373132E-03	    1.022286E-02	    0.000000E+00	    0.000000E+00	    1.000000E-03	    1.000000E-03	    1.000000E+03	    0.000000E+00	    0.000000E+00	    0.000000E+00	    0.000000E+00	
   -5.307702E-03	    1.080785E-02	    0.000000E+00	    0.000000E+00	    1.000000E-03	    1.000000E-03	    1.000000E+03	    0.000000E+00	    0.000000E+00	    0.000000E+00	    0.000000E+00	
   -4.277189E-03	    1.125075E-02	    0.000000E+00	    0.000000E+00	    1.000000E-03	    1.000000E-03	    1.000000E+03	    0.000000E+00	    0.000000E+00	    0.000000E+00	    0.000000E+00	
   -3.309761E-03	    1.156901E-02	    0.000000E+00	    0.000000E+00	    1.000000E-03	    1.000000E-03	    1.000000E+03	    0.000000E+00	    0.000000E+00	    0.000000E+00	    0.000000E+00	
   -2.422724E-03	    1.178450E-02	    0.000000E+00	    0.000000E+00	    1.000000E-03	    1.000000E-03	    1.000000E+03	    0.000000E+00	    0.000000E+00	    0.000000E+00	    0.000000E+00	
   -1.624046E-03	    1.191947E-02	    0.000000E+00	    0.000000E+00	    1.000000E-03	    1.000000E-03	    1.000000E+03	    0.000000E+00	    0.000000E+00	    0.000000E+00	    0.000000E+00	
   -9.147101E-04	    1.199402E-02	    0.000000E+00	    0.000000E+00	    1.000000E-03	    1.000000E-03	    1.000000E+03	    0.000000E+00	    0.000000E+00	    0.000000E+00	    0.000000E+00	
   -2.910617E-04	    1.202501E-02	    0.000000E+00	    0.000000E+00	    1.000000E-03	    1.000000E-03	    1.000000E+03	    0.000000E+00	    0.000000E+00	    0.000000E+00	    0.000000E+00	
    2.910617E-04	    1.202501E-02	    0.000000E+00	    0.000000E+00	    1.000000E-03	    1.000000E-03	    1.000000E+03	    0.000000E+00	    0.000000E+00	    0.000000E+00	    0.000000E+00	
    9.147101E-04	    1.199402E-02	    0.000000E+00	    0.000000E+00	    1.000000E-03	    1.000000E-03	    1.000000E+03	    0.000000E+00	    0.000000E+00	    0.000000E+00	    0.000000E+00	
    1.624046E-03	    1.191947E-02	    0.000000E+00	    0.000000E+00	    1.000000E-03	    1.000000E-03	    1.000000E+03	    0.000000E+00	    0.000000E+00	    0.000000E+00	    0.000000E+00	
    2.422724E-03	    1.178450E-02	    0.000000E+00	    0.000000E+00	    1.000000E-03	    1.000000E-03	    1.000000E+03	    0.000000E+00	    0.000000E+00	    0.000000E+00	    0.000000E+00	
    3.309761E-03	    1.156901E-02	    0.000000E+00	    0.000000E+00	    1.000000E-03	    1.000000E-03	    1.000000E+03	    0.000000E+00	    0.000000E+00	    0.000000E+00	    0.000000E+00	
    4.277189E-03	    1.125075E-02	    0.000000E+00	    0.000000E+00	    1.000000E-03	    1.000000E-03	    1.000000E+03	    0.000000E+00	    0.000000E+00	    0.000000E+00	    0.000000E+00	
    5.307702E-03	    1.080785E-02	    0.000000E+00	    0.000000E+00	    1.000000E-03	    1.000000E-03	    1.000000E+03	    0.000000E+00	    0.000000E+00	    0.000000E+00	    0.000000E+00	
    6.373132E-03	    1.022286E-02	    0.000000E+00	    0.000000E+00	    1.000000E-03	    1.000000E-03	    1.000000E+03	    0.000000E+00	    0.000000E+00	    0.000000E+00	    0.000000E+00	
    7.434908E-03	    9.488112E-03	    0.000000E+00	    0.000000E+00	    1.000000E-03	    1.000000E-03	    1.000000E+03	    0.000000E+00	    0.000000E+00	    0.000000E+00	    0.000000E+00	
    8.447592E-03	    8.611236E-03	    0.000000E+00	    0.000000E+00	    1.000000E-03	    1.000000E-03	    1.000000E+03	    0.000000E+00	    0.000000E+00	    0.000000E+00	    0.000000E+00	
    9.365676E-03	    7.618437E-03	    0.000000E+00	    0.000000E+00	    1.000000E-03	    1.000000E-03	    1.000000E+03	    0.000000E+00	    0.000000E+00	    0.000000E+00	    0.000000E+00	
    1.015216E-02	    6.553541E-03	    0.000000E+00	    0.000000E+00	    1.000000E-03	    1.000000E-03	    1.000000E+03	    0.000000E+00	    0.000000E+00	    0.000000E+00	    0.000000E+00	
    1.078595E-02	    5.471869E-03	    0.000000E+00	    0.000000E+00	    1.000000E-03	    1.000000E-03	    1.000000E+03	    0.000000E+00	    0.000000E+00	    0.000000E+00	    0.000000E+00	
    1.126508E-02	    4.430482E-03	    0.000000E+00	    0.000000E+00	    1.000000E-03	    1.000000E-03	    1.000000E+03	    0.000000E+00	    0.000000E+00	    0.000000E+00	    0.000000E+00	
    1.160451E-02	    3.478208E-03	    0.000000E+00	    0.000000E+00	    1.000000E-03	    1.000000E-03	    1.000000E+03	    0.000000E+00	    0.000000E+00	    0.000000E+00	    0.000000E+00	
    1.182998E-02	    2.648730E-03	    0.000000E+00	    0.000000E+00	    1.000000E-03	    1.000000E-03	    1.000000E+03	    0.000000E+00	    0.000000E+00	    0.000000E+00	    0.000000E+00	
    1.197068E-02	    1.958259E-03	    0.000000E+00	    0.000000E+00	    1.000000E-03	    1.000000E-03	    1.000000E+03	    0.000000E+00	    0.000000E+00	    0.000000E+00	    0.000000E+00	
    1.205344E-02	    1.407248E-03	    0.000000E+00	    0.000000E+00	    1.000000E-03	    1.000000E-03	    1.000000E+03	    0.000000E+00	    0.000000E+00	    0.000000E+00	    0.000000E+00	
    1.209956E-02	    9.844691E-04	    0.000000E+00	    0.000000E+00	    1.000000E-03	    1.000000E-03	    1.000000E+03	    0.000000E+00	    0.000000E+00	    0.000000E+00	    0.000000E+00	
    1.212408E-02	    6.717413E-04	    0.000000E+00	    0.000000E+00	    1.000000E-03	    1.000000E-03	    1.000000E+03	    0.000000E+00	    0.000000E+00	    0.000000E+00	    0.000000E+00	
    1.213664E-02	    4.481479E-04	    0.000000E+00	    0.000000E+00	    1.000000E-03	    1.000000E-03	    1.000000E+03	    0.000000E+00	    0.000000E+00	    0.000000E+00	    0.000000E+00	
    1.214292E-02	    2.931943E-04	    0.000000E+00	    0.000000E+00	    1.000000E-03	    1.000000E-03	    1.000000E+03	    0.000000E+00	    0.000000E+00	    0.000000E+00	    0.000000E+00	
    1.214604E-02	    1.887791E-04	    0.000000E+00	    0.000000E+00	    1.000000E-03	    1.000000E-03	    1.000000E+03	    0.000000E+00	    0.000000E+00	    0.000000E+00	    0.000000E+00	
    1.214760E-02	    1.201162E-04	    0.000000E+00	    0.000000E+00	    1.000000E-03	    1.000000E-03	    1.000000E+03	    0.000000E+00	    0.000000E+00	    0.000000E+00	    0.000000E+00	
    1.214840E-02	    7.587059E-05	    0.000000E+00	    0.000000E+00	    1.000000E-03	    1.000000E-03	    1.000000E+03	    0.000000E+00	    0.000000E+00	    0.000000E+00	    0.000000E+00	
    1.214864E-02	    6.022430E-05	    0.000000E+00	    0.000000E+00	    1.000000E-03	    1.000000E-03	    1.000000E+03	    0.000000E+00	    0.000000E+00	    0.000000E+00	    0.000000E+00	
   -1.214823E-02	    6.021683E-05	    0.000000E+00	    0.000000E+00	    1.000000E-03	    1.000000E-03	    1.000000E+03	    0.000000E+00	    0.000000E+00	    0.000000E+00	    0.000000E+00	
   -1.214788E-02	    7.586052E-05	    2.775162E-04	   -1.000000E+00	    1.001110E-03	    1.000000E-03	    1.000000E+03	    5.047131E-06	    1.919290E-03	    3.802734E+05	    2.883729E+05	
   -1.214679E-02	    1.200973E-04	    8.427287E-04	   -1.000000E+00	    1.001200E-03	    1.000000E-03	    1.000000E+03	    5.454606E-06	    8.944022E-04	    1.639719E+05	    1.075033E+06	
   -1.214476E-02	    1.887422E-04	    1.582486E-03	   -1.000000E+00	    1.002221E-03	    1.000000E-03	    1.000000E+03	    1.009327E-05	    1.239884E-03	    1.228427E+05	    1.532981E+06	
   -1.214094E-02	    2.931200E-04	    2.624847E-03	   -1.000000E+00	    1.004026E-03	    1.000000E-03	    1.000000E+03	    1.830191E-05	    1.690177E-03	    9.234979E+04	    1.745058E+06	
   -1.213361E-02	    4.479957E-04	    4.137995E-03	   -1.000000E+00	    1.006973E-03	    1.000000E-03	    1.000000E+03	    3.169625E-05	    2.170008E-03	    6.846259E+04	    1.850313E+06	
   -1.211955E-02	    6.714295E-04	    6.319731E-03	   -1.000000E+00	    1.011606E-03	    1.000000E-03	    1.000000E+03	    5.275581E-05	    2.675955E-03	    5.072341E+04	    1.910843E+06	
   -1.209293E-02	    9.838410E-04	    9.389647E-03	   -1.000000E+00	    1.018586E-03	    1.000000E-03	    1.000000E+03	    8.448375E-05	    3.195656E-03	    3.782569E+04	    1.947524E+06	
   -1.204401E-02	    1.406019E-03	    1.356779E-02	   -1.000000E+00	    1.028629E-03	    1.000000E-03	    1.000000E+03	    1.301310E-04	    3.711422E-03	    2.852066E+04	    1.963611E+06	
   -1.195765E-02	    1.955950E-03	    1.903945E-02	   -1.000000E+00	    1.042401E-03	    1.000000E-03	    1.000000E+03	    1.927317E-04	    4.205514E-03	    2.182056E+04	    1.955077E+06	
   -1.181256E-02	    2.644593E-03	    2.590997E-02	   -1.000000E+00	    1.060378E-03	    1.000000E-03	    1.000000E+03	    2.744463E-04	    4.662929E-03	    1.699032E+04	    1.916476E+06	
   -1.158209E-02	    3.471175E-03	    3.415716E-02	   -1.000000E+00	    1.082680E-03	    1.000000E-03	    1.000000E+03	    3.758194E-04	    5.073025E-03	    1.349857E+04	    1.846836E+06	
   -1.123737E-02	    4.419185E-03	    4.359402E-02	   -1.000000E+00	    1.108934E-03	    1.000000E-03	    1.000000E+03	    4.951549E-04	    5.430374E-03	    1.096702E+04	    1.753479E+06	
   -1.075321E-02	    5.454763E-03	    5.386301E-02	   -1.000000E+00	    1.138205E-03	    1.000000E-03	    1.000000E+03	    6.282044E-04	    5.733648E-03	    9.127042E+03	    1.649820E+06	
   -1.011527E-02	    6.529136E-03	    6.446551E-02	   -1.000000E+00	    1.169039E-03	    1.000000E-03	    1.000000E+03	    7.683611E-04	    5.983283E-03	    7.787072E+03	    1.548875E+06	
   -9.326135E-03	    7.585587E-03	    7.483070E-02	   -1.000000E+00	    1.199674E-03	    1.000000E-03	    1.000000E+03	    9.076102E-04	    6.181364E-03	    6.810593E+03	    1.459084E+06	
   -8.407302E-03	    8.569391E-03	    8.441793E-02	   -1.000000E+00	    1.228376E-03	    1.000000E-03	    1.000000E+03	    1.038071E-03	    6.332559E-03	    6.100314E+03	    1.384102E+06	
   -7.395856E-03	    9.437422E-03	    9.281521E-02	   -1.000000E+00	    1.253771E-03	    1.000000E-03	    1.000000E+03	    1.153506E-03	    6.443878E-03	    5.586340E+03	    1.324325E+06	
   -6.337080E-03	    1.016411E-02	    9.979436E-02	   -1.000000E+00	    1.275048E-03	    1.000000E-03	    1.000000E+03	    1.250217E-03	    6.523338E-03	    5.217766E+03	    1.278415E+06	
   -5.275969E-03	    1.074227E-02	    1.053105E-01	   -1.000000E+00	    1.291969E-03	    1.000000E-03	    1.000000E+03	    1.327130E-03	    6.578580E-03	    4.956997E+03	    1.244309E+06	
   -4.250575E-03	    1.117974E-02	    1.094609E-01	   -1.000000E+00	    1.304760E-03	    1.000000E-03	    1.000000E+03	    1.385274E-03	    6.616047E-03	    4.775985E+03	    1.219800E+06	
   -3.288589E-03	    1.149396E-02	    1.124283E-01	   -1.000000E+00	    1.313938E-03	    1.000000E-03	    1.000000E+03	    1.426992E-03	    6.640759E-03	    4.653677E+03	    1.202829E+06	
   -2.406939E-03	    1.170666E-02	    1.144295E-01	   -1.000000E+00	    1.320144E-03	    1.000000E-03	    1.000000E+03	    1.455200E-03	    6.656436E-03	    4.574241E+03	    1.191611E+06	
   -1.613344E-03	    1.183985E-02	    1.156783E-01	   -1.000000E+00	    1.324025E-03	    1.000000E-03	    1.000000E+03	    1.472843E-03	    6.665765E-03	    4.525782E+03	    1.184674E+06	
   -9.086451E-04	    1.191341E-02	    1.163651E-01	   -1.000000E+00	    1.326165E-03	    1.000000E-03	    1.000000E+03	    1.482568E-03	    6.670661E-03	    4.499396E+03	    1.180843E+06	
   -2.891269E-04	    1.194400E-02	    1.166472E-01	   -1.000000E+00	    1.327050E-03	    1.000000E-03	    1.000000E+03	    1.486589E-03	    6.672479E-03	    4.488449E+03	    1.179202E+06	
    2.891269E-04	    1.194400E-02	    1.166472E-01	   -1.000000E+00	    1.327050E-03	    1.000000E-03	    1.000000E+03	    1.486589E-03	    6.672479E-03	    4.488449E+03	    1.179202E+06	
    9.086451E-04	    1.191341E-02	    1.163651E-01	   -1.000000E+00	    1.326165E-03	    1.000000E-03	    1.000000E+03	    1.482568E-03	    6.670661E-03	    4.499396E+03	    1.180843E+06	
    1.613344E-03	    1.183985E-02	    1.156783E-01	   -1.000000E+00	    1.324025E-03	    1.000000E-03	    1.000000E+03	    1.472843E-03	    6.665765E-03	    4.525782E+03	    1.184674E+06	
    2.406939E-03	    1.170666E-02	    1.144295E-01	   -1.000000E+00	    1.320144E-03	    1.000000E-03	    1.000000E+03	    1.455200E-03	    6.656436E-03	    4.574241E+03	    1.191611E+06	
    3.288589E-03	    1.149396E-02	    1.124283E-01	   -1.000000E+00	    1.313938E-03	    1.000000E-03	    1.000000E+03	    1.426992E-03	    6.640759E-03	    4.653677E+03	    1.202829E+06	
    4.250575E-03	    1.117974E-02	    1.094609E-01	   -1.000000E+00	    1.304760E-03	    1.000000E-03	    1.000000E+03	    1.385274E-03	    6.616047E-03	    4.775985E+03	    1.219800E+06	
    5.275969E-03	    1.074227E-02	    1.053105E-01	   -1.000000E+00	    1.291969E-03	    1.000000E-03	    1.000000E+03	    1.327130E-03	    6.578580E-03	    4.956997E+03	    1.244309E+06	
    6.337080E-03	    1.016411E-02	    9.979436E-02	   -1.000000E+00	    1.275048E-03	    1.000000E-03	    1.000000E+03	    1.250217E-03	    6.523338E-03	    5.217766E+03	    1.278415E+06	
    7.395856E-03	    9.437422E-03	    9.281521E-02	   -1.000000E+00	    1.253771E-03	    1.000000E-03	    1.000000E+03	    1.153506E-03	    6.443878E-03	    5.586340E+03	    1.324325E+06	
    8.407302E-03	    8.569391E-03	    8.441793E-02	   -1.000000E+00	    1.228376E-03	    1.000000E-03	    1.000000E+03	    1.038071E-03	    6.332559E-03	    6.100314E+03	    1.384102E+06	
    9.326135E-03	    7.585587E-03	    7.483070E-02	   -1.000000E+00	    1.199674E-03	    1.000000E-03	    1.000000E+03	    9.076102E-04	    6.181364E-03	    6.810593E+03	    1.459084E+06	
    1.011527E-02	    6.529136E-03	    6.446551E-02	   -1.000000E+00	    1.169039E-03	    1.000000E-03	    1.000000E+03	    7.683611E-04	    5.983283E-03	    7.787072E+03	    1.548875E+06	
    1.075321E-02	    5.454763E-03	    5.386301E-02	   -1.000000E+00	    1.138205E-03	    1.000000E-03	    1.000000E+03	    6.282044E-04	    5.733648E-03	    9.127042E+03	    1.649820E+06	
    1.123737E-02	    4.419185E-03	    4.359402E-02	   -1.000000E+00	    1.108934E-03	    1.000000E-03	    1.000000E+03	    4.951549E-04	    5.430374E-03	    1.096702E+04	    1.753479E+06	
    1.158209E-02	    3.471175E-03	    3.415716E-02	   -1.000000E+00	    1.082680E-03	    1.000000E-03	    1.000000E+03	    3.758194E-04	    5.073025E-03	    1.349857E+04	    1.846836E+06	
    1.181256E-02	    2.644593E-03	    2.590997E-02	   -1.000000E+00	    1.060378E-03	    1.000000E-03	    1.000000E+03	    2.744463E-04	    4.662929E-03	    1.699032E+04	    1.916476E+06	
    1.195765E-02	    1.955950E-03	    1.903945E-02	   -1.000000E+00	    1.042401E-03	    1.000000E-03	    1.000000E+03	    1.927317E-04	    4.205514E-03	    2.182056E+04	    1.955077E+06	
    1.204401E-02	    1.406019E-03	    1.356779E-02	   -1.000000E+00	    1.028629E-03	    1.000000E-03	    1.000000E+03	    1.301310E-04	    3.711422E-03	    2.852066E+04	    1.963611E+06	
    1.209293E-02	    9.838410E-04	    9.389647E-03	   -1.000000E+00	    1.018586E-03	    1.000000E-03	    1.000000E+03	    8.448375E-05	    3.195656E-03	    3.782569E+04	    1.947524E+06	
    1.211955E-02	    6.714295E-04	    6.319731E-03	   -1.000000E+00	    1.011606E-03	    1.000000E-03	    1.000000E+03	    5.275581E-05	    2.675955E-03	    5.072341E+04	    1.910843E+06	
    1.213361E-02	    4.479957E-04	    4.137995E-03	   -1.000000E+00	    1.006973E-03	    1.000000E-03	    1.000000E+03	    3.169625E-05	    2.170008E-03	    6.846259E+04	    1.850313E+06	
    1.214094E-02	    2.931200E-04	    2.624847E-03	   -1.000000E+00	    1.004026E-03	    1.000000E-03	    1.000000E+03	    1.830191E-05	    1.690177E-03	    9.234979E+04	    1.745058E+06	
    1.214476E-02	    1.887422E-04	    1.582486E-03	   -1.000000E+00	    1.002221E-03	    1.000000E-03	    1.000000E+03	    1.009327E-05	    1.239884E-03	    1.228427E+05	    1.532981E+06	
    1.214679E-02	    1.200973E-04	    8.427287E-04	   -1.000000E+00	    1.001200E-03	    1.000000E-03	    1.000000E+03	    5.454606E-06	    8.944022E-04	    1.639719E+05	    1.075033E+06	
    1.214788E-02	    7.586052E-05	    2.775162E-04	   -1.000000E+00	    1.001110E-03	    1.000000E-03	    1.000000E+03	    5.047131E-06	    1.919290E-03	    3.802734E+05	    2.883729E+05	
    1.214823E-02	    6.021683E-05	    0.000000E+00	    0.000000E+00	    1.000000E-03	    1.000000E-03	    1.000000E+03	    0.000000E+00	    0.000000E+00	    0.000000E+00	    0.000000E+00	
   -1.214729E-02	    6.018900E-05	    0.000000E+00	    0.000000E+00	    1.000000E-03	    1.000000E-03	    1.000000E+03	    0.000000E+00	    0.000000E+00	    0.000000E+00	    0.000000E+00	
   -1.214670E-02	    7.582392E-05	    9.098223E-04	   -1.000000E+00	    1.033915E-03	    1.000000E-03	    1.000000E+03	    1.541576E-04	    1.924959E-03	    1.248696E+04	    2.811614E+05	
   -1.214491E-02	    1.200325E-04	    2.789816E-03	   -1.000000E+00	    1.001252E-03	    1.000000E-03	    1.000000E+03	    5.689626E-06	    7.777984E-04	    1.367046E+05	    1.073951E+06	
   -1.214181E-02	    1.886237E-04	    5.234608E-03	   -1.000000E+00	    1.002271E-03	    1.000000E-03	    1.000000E+03	    1.032186E-05	    9.998222E-04	    9.686452E+04	    1.528785E+06	
   -1.213636E-02	    2.928967E-04	    8.670062E-03	   -1.000000E+00	    1.004174E-03	    1.000000E-03	    1.000000E+03	    1.897319E-05	    1.282229E-03	    6.758112E+04	    1.736078E+06	
   -1.212662E-02	    4.475651E-04	    1.363562E-02	   -1.000000E+00	    1.007445E-03	    1.000000E-03	    1.000000E+03	    3.384234E-05	    1.556330E-03	    4.598764E+04	    1.833173E+06	
   -1.210908E-02	    6.705914E-04	    2.074511E-02	   -1.000000E+00	    1.013088E-03	    1.000000E-03	    1.000000E+03	    5.949161E-05	    1.844022E-03	    3.099634E+04	    1.878458E+06	
   -1.207763E-02	    9.822180E-04	    3.063425E-02	   -1.000000E+00	    1.023028E-03	    1.000000E-03	    1.000000E+03	    1.046707E-04	    2.190989E-03	    2.093220E+04	    1.884423E+06	
   -1.202224E-02	    1.402938E-03	    4.383719E-02	   -1.000000E+00	    1.041040E-03	    1.000000E-03	    1.000000E+03	    1.865443E-04	    2.671130E-03	    1.431901E+04	    1.838120E+06	
   -1.192760E-02	    1.950285E-03	    6.057966E-02	   -1.000000E+00	    1.073933E-03	    1.000000E-03	    1.000000E+03	    3.360585E-04	    3.373162E-03	    1.003743E+04	    1.718443E+06	
   -1.177247E-02	    2.634602E-03	    8.054027E-02	   -1.000000E+00	    1.131502E-03	    1.000000E-03	    1.000000E+03	    5.977355E-04	    4.357606E-03	    7.290191E+03	    1.526099E+06	
   -1.153055E-02	    3.454397E-03	    1.027598E-01	   -1.000000E+00	    1.223165E-03	    1.000000E-03	    1.000000E+03	    1.014385E-03	    5.604205E-03	    5.524734E+03	    1.295378E+06	
   -1.117378E-02	    4.392487E-03	    1.258696E-01	   -1.000000E+00	    1.352640E-03	    1.000000E-03	    1.000000E+03	    1.602910E-03	    7.005166E-03	    4.370280E+03	    1.068394E+06	
   -1.067819E-02	    5.414629E-03	    1.485110E-01	   -1.000000E+00	    1.515373E-03	    1.000000E-03	    1.000000E+03	    2.342603E-03	    8.417241E-03	    3.593114E+03	    8.719701E+05	
   -1.003092E-02	    6.472204E-03	    1.696132E-01	   -1.000000E+00	    1.699998E-03	    1.000000E-03	    1.000000E+03	    3.181807E-03	    9.717953E-03	    3.054224E+03	    7.152280E+05	
   -9.235912E-03	    7.509312E-03	    1.884514E-01	   -1.000000E+00	    1.891781E-03	    1.000000E-03	    1.000000E+03	    4.053549E-03	    1.083246E-02	    2.672339E+03	    5.963514E+05	
   -8.315535E-03	    8.472593E-03	    2.046132E-01	   -1.000000E+00	    2.076255E-03	    1.000000E-03	    1.000000E+03	    4.892069E-03	    1.173406E-02	    2.398587E+03	    5.090353E+05	
   -7.307050E-03	    9.320514E-03	    2.179551E-01	   -1.000000E+00	    2.242024E-03	    1.000000E-03	    1.000000E+03	    5.645565E-03	    1.243095E-02	    2.201897E+03	    4.462368E+05	
   -6.255204E-03	    1.002892E-02	    2.285570E-01	   -1.000000E+00	    2.382161E-03	    1.000000E-03	    1.000000E+03	    6.282549E-03	    1.295023E-02	    2.061302E+03	    4.017770E+05	
   -5.203978E-03	    1.059161E-02	    2.366642E-01	   -1.000000E+00	    2.494195E-03	    1.000000E-03	    1.000000E+03	    6.791794E-03	    1.332522E-02	    1.961959E+03	    3.707632E+05	
   -4.190247E-03	    1.101682E-02	    2.426214E-01	   -1.000000E+00	    2.579145E-03	    1.000000E-03	    1.000000E+03	    7.177934E-03	    1.358805E-02	    1.893030E+03	    3.495065E+05	
   -3.240621E-03	    1.132195E-02	    2.468108E-01	   -1.000000E+00	    2.640204E-03	    1.000000E-03	    1.000000E+03	    7.455473E-03	    1.376622E-02	    1.846458E+03	    3.352881E+05	
   -2.371191E-03	    1.152836E-02	    2.496046E-01	   -1.000000E+00	    2.681532E-03	    1.000000E-03	    1.000000E+03	    7.643325E-03	    1.388187E-02	    1.816209E+03	    3.261209E+05	
   -1.589115E-03	    1.165755E-02	    2.513353E-01	   -1.000000E+00	    2.707393E-03	    1.000000E-03	    1.000000E+03	    7.760878E-03	    1.395214E-02	    1.797753E+03	    3.205552E+05	
   -8.949153E-04	    1.172889E-02	    2.522822E-01	   -1.000000E+00	    2.721652E-03	    1.000000E-03	    1.000000E+03	    7.825692E-03	    1.399002E-02	    1.787704E+03	    3.175319E+05	
   -2.847470E-04	    1.175854E-02	    2.526693E-01	   -1.000000E+00	    2.727541E-03	    1.000000E-03	    1.000000E+03	    7.852461E-03	    1.400519E-02	    1.783542E+03	    3.162779E+05	
    2.847470E-04	    1.175854E-02	    2.526693E-01	   -1.000000E+00	    2.727541E-03	    1.000000E-03	    1.000000E+03	    7.852461E-03	    1.400519E-02	    1.783542E+03	    3.162779E+05	
    8.949153E-04	    1.172889E-02	    2.522822E-01	   -1.000000E+00	    2.721652E-03	    1.000000E-03	    1.000000E+03	    7.825692E-03	    1.399002E-02	    1.787704E+03	    3.175319E+05	
    1.589115E-03	    1.165755E-02	    2.513353E-01	   -1.000000E+00	    2.707393E-03	    1.000000E-03	    1.000000E+03	    7.760878E-03	    1.395214E-02	    1.797753E+03	    3.205552E+05	
    2.371191E-03	    1.152836E-02	    2.496046E-01	   -1.000000E+00	    2.681532E-03	    1.000000E-03	    1.000000E+03	    7.643325E-03	    1.388187E-02	    1.816209E+03	    3.261209E+05	
    3.240621E-03	    1.132195E-02	    2.468108E-01	   -1.000000E+00	    2.640204E-03	    1.000000E-03	    1.000000E+03	    7.455473E-03	    1.376622E-02	    1.846458E+03	    3.352881E+05	
    4.190247E-03	    1.101682E-02	    2.426214E-01	   -1.000000E+00	    2.579145E-03	    1.000000E-03	    1.000000E+03	    7.177934E-03	    1.358805E-02	    1.893030E+03	    3.495065E+05	
    5.203978E-03	    1.059161E-02	    2.366642E-01	   -1.000000E+00	    2.494195E-03	    1.000000E-03	    1.000000E+03	    6.791794E-03	    1.332522E-02	    1.961959E+03	    3.707632E+05	
    6.255204E-03	    1.002892E-02	    2.285570E-01	   -1.000000E+00	    2.382161E-03	    1.000000E-03	    1.000000E+03	    6.282549E-03	    1.295023E-02	    2.061302E+03	    4.017770E+05	
    7.307050E-03	    9.320514E-03	    2.179551E-01	   -1.000000E+00	    2.242024E-03	    1.000000E-03	    1.000000E+03	    5.645565E-03	    1.243095E-02	    2.201897E+03	    4.462368E+05	
    8.315535E-03	    8.472593E-03	    2.046132E-01	   -1.000000E+00	    2.076255E-03	    1.000000E-03	    1.000000E+03	    4.892069E-03	    1.173406E-02	    2.398587E+03	    5.090353E+05	
    9.235912E-03	    7.509312E-03	    1.884514E-01	   -1.000000E+00	    1.891781E-03	    1.000000E-03	    1.000000E+03	    4.053549E-03	    1.083246E-02	    2.672339E+03	    5.963514E+05	
    1.003092E-02	    6.472204E-03	    1.696132E-01	   -1.000000E+00	    1.699998E-03	    1.000000E-03	    1.000000E+03	    3.181807E-03	    9.717953E-03	    3.054224E+03	    7.152280E+05	
    1.067819E-02	    5.414629E-03	    1.485110E-01	   -1.000000E+00	    1.515373E-03	    1.000000E-03	    1.000000E+03	    2.342603E-03	    8.417241E-03	    3.593114E+03	    8.719701E+05	
    1.117378E-02	    4.392487E-03	    1.258696E-01	   -1.000000E+00	    1.352640E-03	    1.000000E-03	    1.000000E+03	    1.602910E-03	    7.005166E-03	    4.370280E+03	    1.068394E+06	
    1.153055E-02	    3.454397E-03	    1.027598E-01	   -1.000000E+00	    1.223165E-03	    1.000000E-03	    1.000000E+03	    1.014385E-03	    5.604205E-03	    5.524734E+03	    1.295378E+06	
    1.177247E-02	    2.634602E-03	    8.054027E-02	   -1.000000E+00	    1.131502E-03	    1.000000E-03	    1.000000E+03	    5.977355E-04	    4.357606E-03	    7.290191E+03	    1.526099E+06	
    1.192760E-02	    1.950285E-03	    6.057966E-02	   -1.000000E+00	    1.073933E-03	    1.000000E-03	    1.000000E+03	    3.360585E-04	    3.373162E-03	    1.003743E+04	    1.718443E+06	
    1.202224E-02	    1.402938E-03	    4.383719E-02	   -1.000000E+00	    1.041040E-03	    1.000000E-03	    1.000000E+03	    1.865443E-04	    2.671130E-03	    1.431901E+04	    1.838120E+06	
    1.207763E-02	    9.822180E-04	    3.063425E-02	   -1.000000E+00	    1.023028E-03	    1.000000E-03	    1.000000E+03	    1.046707E-04	    2.190989E-03	    2.093220E+04	    1.884423E+06	
    1.210908E-02	    6.705914E-04	    2.074511E-02	   -1.000000E+00	    1.013088E-03	    1.000000E-03	    1.000000E+03	    5.949161E-05	    1.844022E-03	    3.099634E+04	    1.878458E+06	
    1.212662E-02	    4.475651E-04	    1.363562E-02	   -1.000000E+00	    1.007445E-03	    1.000000E-03	    1.000000E+03	    3.384234E-05	    1.556330E-03	    4.598764E+04	    1.833173E+06	
    1.213636E-02	    2.928967E-04	    8.670062E-03	   -1.000000E+00	    1.004174E-03	    1.000000E-03	    1.000000E+03	    1.897319E-05	    1.282229E-03	    6.758112E+04	    1.736078E+06	
    1.214181E-02	    1.886237E-04	    5.234608E-03	   -1.000000E+00	    1.002271E-03	    1.000000E-03	    1.000000E+03	    1.032186E-05	    9.998222E-04	    9.686452E+04	    1.528785E+06	
    1.214491E-02	    1.200325E-04	    2.789816E-03	   -1.000000E+00	    1.001252E-03	    1.000000E-03	    1.000000E+03	    5.689626E-06	    7.777984E-04	    1.367046E+05	    1.073951E+06	
    1.214670E-02	    7.582392E-05	    9.098223E-04	   -1.000000E+00	    1.033915E-03	    1.000000E-03	    1.000000E+03	    1.541576E-04	    1.924959E-03	    1.248696E+04	    2.811614E+05	
    1.214729E-02	    6.018900E-05	    0.000000E+00	    0.000000E+00	    1.000000E-03	    1.000000E-03	    1.000000E+03	    0.000000E+00	    0.000000E+00	    0.000000E+00	    0.000000E+00	
   -1.214606E-02	    6.013027E-05	    0.000000E+00	    0.000000E+00	    1.000000E-03	    1.000000E-03	    1.000000E+03	    0.000000E+00	    0.000000E+00	    0.000000E+00	    0.000000E+00	
   -1.214514E-02	    7.574794E-05	    1.722276E-03	   -1.000000E+00	    1.034023E-03	    1.000000E-03	    1.000000E+03	    1.546522E-04	    1.937776E-03	    1.252990E+04	    2.829237E+05	