Title="Fields"
Variables="X""Y""Velocity""Phi""Effective Viscosity""Dynamic Viscosity""Density""Eddy Viscosity""K""Omega""S""F1SST""distance""GEN"
Zone I=52 J=52 F=POINT
   -1.214994E-02	    6.023366E-05	    0.000000E+00	    0.000000E+00	    1.000000E-03	    1.000000E-03	    1.000000E+03	    0.000000E+00	    0.000000E+00	    5.978673E+08	    0.000000E+00	    1.000000E+00	    0.000000E+00	    0.000000E+00	
   -1.214989E-02	    7.588354E-05	    0.000000E+00	    0.000000E+00	    1.000000E-03	    1.000000E-03	    1.000000E+03	    0.000000E+00	    0.000000E+00	    5.978673E+08	    0.000000E+00	    1.000000E+00	    0.000000E+00	    0.000000E+00	
   -1.214961E-02	    1.201419E-04	    0.000000E+00	    0.000000E+00	    1.000000E-03	    1.000000E-03	    1.000000E+03	    0.000000E+00	    0.000000E+00	    2.385184E+08	    0.000000E+00	    1.000000E+00	    0.000000E+00	    0.000000E+00	
   -1.214887E-02	    1.888323E-04	    0.000000E+00	    0.000000E+00	    1.000000E-03	    1.000000E-03	    1.000000E+03	    0.000000E+00	    0.000000E+00	    9.655508E+07	    0.000000E+00	    1.000000E+00	    0.000000E+00	    0.000000E+00	
   -1.214700E-02	    2.933069E-04	    0.000000E+00	    0.000000E+00	    1.000000E-03	    1.000000E-03	    1.000000E+03	    0.000000E+00	    0.000000E+00	    4.002287E+07	    0.000000E+00	    1.000000E+00	    0.000000E+00	    0.000000E+00	
   -1.214256E-02	    4.483882E-04	    0.000000E+00	    0.000000E+00	    1.000000E-03	    1.000000E-03	    1.000000E+03	    0.000000E+00	    0.000000E+00	    1.712704E+07	    0.000000E+00	    1.000000E+00	    0.000000E+00	    0.000000E+00	
   -1.213266E-02	    6.722490E-04	    0.000000E+00	    0.000000E+00	    1.000000E-03	    1.000000E-03	    1.000000E+03	    0.000000E+00	    0.000000E+00	    7.620525E+06	    0.000000E+00	    1.000000E+00	    0.000000E+00	    0.000000E+00	
   -1.211184E-02	    9.855156E-04	    0.000000E+00	    0.000000E+00	    1.000000E-03	    1.000000E-03	    1.000000E+03	    0.000000E+00	    0.000000E+00	    3.546455E+06	    0.000000E+00	    1.000000E+00	    0.000000E+00	    0.000000E+00	
   -1.207068E-02	    1.409329E-03	    0.000000E+00	    0.000000E+00	    1.000000E-03	    1.000000E-03	    1.000000E+03	    0.000000E+00	    0.000000E+00	    1.734603E+06	    0.000000E+00	    1.000000E+00	    0.000000E+00	    0.000000E+00	
   -1.199429E-02	    1.962217E-03	    0.000000E+00	    0.000000E+00	    1.000000E-03	    1.000000E-03	    1.000000E+03	    0.000000E+00	    0.000000E+00	    8.950870E+05	    0.000000E+00	    1.000000E+00	    0.000000E+00	    0.000000E+00	
   -1.186136E-02	    2.655886E-03	    0.000000E+00	    0.000000E+00	    1.000000E-03	    1.000000E-03	    1.000000E+03	    0.000000E+00	    0.000000E+00	    4.887751E+05	    0.000000E+00	    1.000000E+00	    0.000000E+00	    0.000000E+00	
   -1.164480E-02	    3.490452E-03	    0.000000E+00	    0.000000E+00	    1.000000E-03	    1.000000E-03	    1.000000E+03	    0.000000E+00	    0.000000E+00	    2.831180E+05	    0.000000E+00	    1.000000E+00	    0.000000E+00	    0.000000E+00	
   -1.131479E-02	    4.450249E-03	    0.000000E+00	    0.000000E+00	    1.000000E-03	    1.000000E-03	    1.000000E+03	    0.000000E+00	    0.000000E+00	    1.742592E+05	    0.000000E+00	    1.000000E+00	    0.000000E+00	    0.000000E+00	
   -1.084468E-02	    5.501927E-03	    0.000000E+00	    0.000000E+00	    1.000000E-03	    1.000000E-03	    1.000000E+03	    0.000000E+00	    0.000000E+00	    1.140750E+05	    0.000000E+00	    1.000000E+00	    0.000000E+00	    0.000000E+00	
   -1.021834E-02	    6.596578E-03	    0.000000E+00	    0.000000E+00	    1.000000E-03	    1.000000E-03	    1.000000E+03	    0.000000E+00	    0.000000E+00	    7.940527E+04	    0.000000E+00	    1.000000E+00	    0.000000E+00	    0.000000E+00	
   -9.436646E-03	    7.676537E-03	    0.000000E+00	    0.000000E+00	    1.000000E-03	    1.000000E-03	    1.000000E+03	    0.000000E+00	    0.000000E+00	    5.867046E+04	    0.000000E+00	    1.000000E+00	    0.000000E+00	    0.000000E+00	
   -8.519966E-03	    8.685430E-03	    0.000000E+00	    0.000000E+00	    1.000000E-03	    1.000000E-03	    1.000000E+03	    0.000000E+00	    0.000000E+00	    4.585791E+04	    0.000000E+00	    1.000000E+00	    0.000000E+00	    0.000000E+00	
   -7.505116E-03	    9.578169E-03	    0.000000E+00	    0.000000E+00	    1.000000E-03	    1.000000E-03	    1.000000E+03	    0.000000E+00	    0.000000E+00	    3.772687E+04	    0.000000E+00	    1.000000E+00	    0.000000E+00	    0.000000E+00	
   -6.437997E-03	    1.032740E-02	    0.000000E+00	    0.000000E+00	    1.000000E-03	    1.000000E-03	    1.000000E+03	    0.000000E+00	    0.000000E+00	    3.246520E+04	    0.000000E+00	    1.000000E+00	    0.000000E+00	    0.000000E+00	
   -5.364833E-03	    1.092471E-02	    0.000000E+00	    0.000000E+00	    1.000000E-03	    1.000000E-03	    1.000000E+03	    0.000000E+00	    0.000000E+00	    2.902199E+04	    0.000000E+00	    1.000000E+00	    0.000000E+00	    0.000000E+00	
   -4.325127E-03	    1.137740E-02	    0.000000E+00	    0.000000E+00	    1.000000E-03	    1.000000E-03	    1.000000E+03	    0.000000E+00	    0.000000E+00	    2.676539E+04	    0.000000E+00	    1.000000E+00	    0.000000E+00	    0.000000E+00	
   -3.347913E-03	    1.170293E-02	    0.000000E+00	    0.000000E+00	    1.000000E-03	    1.000000E-03	    1.000000E+03	    0.000000E+00	    0.000000E+00	    2.530178E+04	    0.000000E+00	    1.000000E+00	    0.000000E+00	    0.000000E+00	
   -2.451175E-03	    1.192347E-02	    0.000000E+00	    0.000000E+00	    1.000000E-03	    1.000000E-03	    1.000000E+03	    0.000000E+00	    0.000000E+00	    2.437754E+04	    0.000000E+00	    1.000000E+00	    0.000000E+00	    0.000000E+00	
   -1.643338E-03	    1.206164E-02	    0.000000E+00	    0.000000E+00	    1.000000E-03	    1.000000E-03	    1.000000E+03	    0.000000E+00	    0.000000E+00	    2.382410E+04	    0.000000E+00	    1.000000E+00	    0.000000E+00	    0.000000E+00	
   -9.256444E-04	    1.213798E-02	    0.000000E+00	    0.000000E+00	    1.000000E-03	    1.000000E-03	    1.000000E+03	    0.000000E+00	    0.000000E+00	    2.352641E+04	    0.000000E+00	    1.000000E+00	    0.000000E+00	    0.000000E+00	
   -2.945501E-04	    1.216972E-02	    0.000000E+00	    0.000000E+00	    1.000000E-03	    1.000000E-03	    1.000000E+03	    0.000000E+00	    0.000000E+00	    2.340427E+04	    0.000000E+00	    1.000000E+00	    0.000000E+00	    0.000000E+00	
    2.945501E-04	    1.216972E-02	    0.000000E+00	    0.000000E+00	    1.000000E-03	    1.000000E-03	    1.000000E+03	    0.000000E+00	    0.000000E+00	    2.340427E+04	    0.000000E+00	    1.000000E+00	    0.000000E+00	    0.000000E+00	
    9.256444E-04	    1.213798E-02	    0.000000E+00	    0.000000E+00	    1.000000E-03	    1.000000E-03	    1.000000E+03	    0.000000E+00	    0.000000E+00	    2.352641E+04	    0.000000E+00	    1.000000E+00	    0.000000E+00	    0.000000E+00	
    1.643338E-03	    1.206164E-02	    0.000000E+00	    0.000000E+00	    1.000000E-03	    1.000000E-03	    1.000000E+03	    0.000000E+00	    0.000000E+00	    2.382410E+04	    0.000000E+00	    1.000000E+00	    0.000000E+00	    0.000000E+00	
    2.451175E-03	    1.192347E-02	    0.000000E+00	    0.000000E+00	    1.000000E-03	    1.000000E-03	    1.000000E+03	    0.000000E+00	    0.000000E+00	    2.437754E+04	    0.000000E+00	    1.000000E+00	    0.000000E+00	    0.000000E+00	
    3.347913E-03	    1.170293E-02	    0.000000E+00	    0.000000E+00	    1.000000E-03	    1.000000E-03	    1.000000E+03	    0.000000E+00	    0.000000E+00	    2.530178E+04	    0.000000E+00	    1.000000E+00	    0.000000E+00	    0.000000E+00	
    4.325127E-03	    1.137740E-02	    0.000000E+00	    0.000000E+00	    1.000000E-03	    1.000000E-03	    1.000000E+03	    0.000000E+00	    0.000000E+00	    2.676539E+04	    0.000000E+00	    1.000000E+00	    0.000000E+00	    0.000000E+00	
    5.364833E-03	    1.092471E-02	    0.000000E+00	    0.000000E+00	    1.000000E-03	    1.000000E-03	    1.000000E+03	    0.000000E+00	    0.000000E+00	    2.902199E+04	    0.000000E+00	    1.000000E+00	    0.000000E+00	    0.000000E+00	
    6.437997E-03	    1.032740E-02	    0.000000E+00	    0.000000E+00	    1.000000E-03	    1.000000E-03	    1.000000E+03	    0.000000E+00	    0.000000E+00	    3.246520E+04	    0.000000E+00	    1.000000E+00	    0.000000E+00	    0.000000E+00	
    7.505116E-03	    9.578169E-03	    0.000000E+00	    0.000000E+00	    1.000000E-03	    1.000000E-03	    1.000000E+03	    0.000000E+00	    0.000000E+00	    3.772687E+04	    0.000000E+00	    1.000000E+00	    0.000000E+00	    0.000000E+00	
    8.519966E-03	    8.685430E-03	    0.000000E+00	    0.000000E+00	    1.000000E-03	    1.000000E-03	    1.000000E+03	    0.000000E+00	    0.000000E+00	    4.585791E+04	    0.000000E+00	    1.000000E+00	    0.000000E+00	    0.000000E+00	
    9.436646E-03	    7.676537E-03	    0.000000E+00	    0.000000E+00	    1.000000E-03	    1.000000E-03	    1.000000E+03	    0.000000E+00	    0.000000E+00	    5.867046E+04	    0.000000E+00	    1.000000E+00	    0.000000E+00	    0.000000E+00	
    1.021834E-02	    6.596578E-03	    0.000000E+00	    0.000000E+00	    1.000000E-03	    1.000000E-03	    1.000000E+03	    0.000000E+00	    0.000000E+00	    7.940527E+04	    0.000000E+00	    1.000000E+00	    0.000000E+00	    0.000000E+00	
    1.084468E-02	    5.501927E-03	    0.000000E+00	    0.000000E+00	    1.000000E-03	    1.000000E-03	    1.000000E+03	    0.000000E+00	    0.000000E+00	    1.140750E+05	    0.000000E+00	    1.000000E+00	    0.000000E+00	    0.000000E+00	
    1.131479E-02	    4.450249E-03	    0.000000E+00	    0.000000E+00	    1.000000E-03	    1.000000E-03	    1.000000E+03	    0.000000E+00	    0.000000E+00	    1.742592E+05	    0.000000E+00	    1.000000E+00	    0.000000E+00	    0.000000E+00	
    1.164480E-02	    3.490452E-03	    0.000000E+00	    0.000000E+00	    1.000000E-03	    1.000000E-03	    1.000000E+03	    0.000000E+00	    0.000000E+00	    2.831180E+05	    0.000000E+00	    1.000000E+00	    0.000000E+00	    0.000000E+00	
    1.186136E-02	    2.655886E-03	    0.000000E+00	    0.000000E+00	    1.000000E-03	    1.000000E-03	    1.000000E+03	    0.000000E+00	    0.000000E+00	    4.887751E+05	    0.000000E+00	    1.000000E+00	    0.000000E+00	    0.000000E+00	
    1.199429E-02	    1.962217E-03	    0.000000E+00	    0.000000E+00	    1.000000E-03	    1.000000E-03	    1.000000E+03	    0.000000E+00	    0.000000E+00	    8.950870E+05	    0.000000E+00	    1.000000E+00	    0.000000E+00	    0.000000E+00	
    1.207068E-02	    1.409329E-03	    0.000000E+00	    0.000000E+00	    1.000000E-03	    1.000000E-03	    1.000000E+03	    0.000000E+00	    0.000000E+00	    1.734603E+06	    0.000000E+00	    1.000000E+00	    0.000000E+00	    0.000000E+00	
    1.211184E-02	    9.855156E-04	    0.000000E+00	    0.000000E+00	    1.000000E-03	    1.000000E-03	    1.000000E+03	    0.000000E+00	    0.000000E+00	    3.546455E+06	    0.000000E+00	    1.000000E+00	    0.000000E+00	    0.000000E+00	
    1.213266E-02	    6.722490E-04	    0.000000E+00	    0.000000E+00	    1.000000E-03	    1.000000E-03	    1.000000E+03	    0.000000E+00	    0.000000E+00	    7.620525E+06	    0.000000E+00	    1.000000E+00	    0.000000E+00	    0.000000E+00	
    1.214256E-02	    4.483882E-04	    0.000000E+00	    0.000000E+00	    1.000000E-03	    1.000000E-03	    1.000000E+03	    0.000000E+00	    0.000000E+00	    1.712704E+07	    0.000000E+00	    1.000000E+00	    0.000000E+00	    0.000000E+00	
    1.214700E-02	    2.933069E-04	    0.000000E+00	    0.000000E+00	    1.000000E-03	    1.000000E-03	    1.000000E+03	    0.000000E+00	    0.000000E+00	    4.002287E+07	    0.000000E+00	    1.000000E+00	    0.000000E+00	    0.000000E+00	
    1.214887E-02	    1.888323E-04	    0.000000E+00	    0.000000E+00	    1.000000E-03	    1.000000E-03	    1.000000E+03	    0.000000E+00	    0.000000E+00	    9.655508E+07	    0.000000E+00	    1.000000E+00	    0.000000E+00	    0.000000E+00	
    1.214961E-02	    1.201419E-04	    0.000000E+00	    0.000000E+00	    1.000000E-03	    1.000000E-03	    1.000000E+03	    0.000000E+00	    0.000000E+00	    2.385184E+08	    0.000000E+00	    1.000000E+00	    0.000000E+00	    0.000000E+00	
    1.214989E-02	    7.588354E-05	    0.000000E+00	    0.000000E+00	    1.000000E-03	    1.000000E-03	    1.000000E+03	    0.000000E+00	    0.000000E+00	    5.978673E+08	    0.000000E+00	    1.000000E+00	    0.000000E+00	    0.000000E+00	
    1.214994E-02	    6.023366E-05	    0.000000E+00	    0.000000E+00	    1.000000E-03	    1.000000E-03	    1.000000E+03	    0.000000E+00	    0.000000E+00	    0.000000E+00	    0.000000E+00	    1.000000E+00	    0.000000E+00	    0.000000E+00	
   -1.214953E-02	    6.023101E-05	    0.000000E+00	    0.000000E+00	    1.000000E-03	    1.000000E-03	    1.000000E+03	    0.000000E+00	    0.000000E+00	    0.000000E+00	    0.000000E+00	    1.000000E+00	    0.000000E+00	    0.000000E+00	
   -1.214937E-02	    7.587954E-05	    8.598451E-05	   -1.000000E+00	    1.600000E-03	    1.600000E-03	    8.010000E+02	    8.047618E-16	    6.006751E-10	    5.978673E+08	    1.827351E+04	    1.000000E+00	    5.169950E-07	    1.685249E+01	
   -1.214880E-02	    1.201326E-04	    2.106605E-04	   -1.000000E+00	    1.600000E-03	    1.600000E-03	    8.010000E+02	    4.877032E-15	    1.452262E-09	    2.385184E+08	    4.372373E+04	    1.000000E+00	    8.185171E-07	    2.561220E+01	
   -1.214759E-02	    1.888104E-04	    3.736535E-04	   -1.000000E+00	    1.600000E-03	    1.600000E-03	    8.010000E+02	    3.792511E-14	    4.571612E-09	    9.655508E+07	    5.567981E+04	    1.000000E+00	    1.286474E-06	    3.262858E+01	
   -1.214500E-02	    2.932557E-04	    5.976353E-04	   -1.000000E+00	    1.600000E-03	    1.600000E-03	    8.010000E+02	    2.343955E-13	    1.171184E-08	    4.002287E+07	    5.903632E+04	    1.000000E+00	    1.998180E-06	    3.462393E+01	
   -1.213951E-02	    4.482710E-04	    9.086085E-04	   -1.000000E+00	    1.600000E-03	    1.600000E-03	    8.010000E+02	    1.268185E-12	    2.711642E-08	    1.712704E+07	    5.838573E+04	    1.000000E+00	    3.054552E-06	    3.427635E+01	
   -1.212808E-02	    6.719888E-04	    1.337132E-03	   -1.000000E+00	    1.600000E-03	    1.600000E-03	    8.010000E+02	    6.193608E-12	    5.892453E-08	    7.620525E+06	    5.624739E+04	    1.000000E+00	    4.579270E-06	    3.308464E+01	
   -1.210515E-02	    9.849613E-04	    1.918048E-03	   -1.000000E+00	    1.600000E-03	    1.600000E-03	    8.010000E+02	    2.752815E-11	    1.218818E-07	    3.546455E+06	    5.384375E+04	    1.000000E+00	    6.712611E-06	    3.176456E+01	
   -1.206115E-02	    1.408201E-03	    2.686708E-03	   -1.000000E+00	    1.600000E-03	    1.600000E-03	    8.010000E+02	    1.112822E-10	    2.409869E-07	    1.734603E+06	    5.164847E+04	    1.000000E+00	    9.598175E-06	    3.060106E+01	
   -1.198111E-02	    1.960040E-03	    3.673744E-03	   -1.000000E+00	    1.600000E-03	    1.600000E-03	    8.010000E+02	    4.075450E-10	    4.554160E-07	    8.950870E+05	    4.979969E+04	    1.000000E+00	    1.336153E-05	    2.968230E+01	
   -1.184372E-02	    2.651910E-03	    4.896933E-03	   -1.000000E+00	    1.600000E-03	    1.600000E-03	    8.010000E+02	    1.344759E-09	    8.205804E-07	    4.887751E+05	    4.827835E+04	    1.000000E+00	    1.808149E-05	    2.900101E+01	
   -1.162205E-02	    3.483598E-03	    6.355599E-03	   -1.000000E+00	    1.600001E-03	    1.600000E-03	    8.010000E+02	    3.979382E-09	    1.406535E-06	    2.831180E+05	    4.705995E+04	    1.000000E+00	    2.375773E-05	    2.854424E+01	
   -1.128663E-02	    4.439126E-03	    8.021776E-03	   -1.000000E+00	    1.600002E-03	    1.600000E-03	    8.010000E+02	    1.051337E-08	    2.287205E-06	    1.742592E+05	    4.609108E+04	    1.000000E+00	    3.028245E-05	    2.827729E+01	
   -1.081132E-02	    5.484949E-03	    9.823845E-03	   -1.000000E+00	    1.600004E-03	    1.600000E-03	    8.010000E+02	    2.462723E-08	    3.507306E-06	    1.140750E+05	    4.519418E+04	    1.000000E+00	    3.742776E-05	    2.807226E+01	
   -1.018068E-02	    6.572200E-03	    1.168775E-02	   -1.000000E+00	    1.600009E-03	    1.600000E-03	    8.010000E+02	    5.124356E-08	    5.079911E-06	    7.940527E+04	    4.446929E+04	    1.000000E+00	    4.486058E-05	    2.797859E+01	
   -9.396199E-03	    7.643556E-03	    1.350793E-02	   -1.000000E+00	    1.600017E-03	    1.600000E-03	    8.010000E+02	    9.473710E-08	    6.939163E-06	    5.867046E+04	    4.382848E+04	    1.000000E+00	    5.218919E-05	    2.792402E+01	
   -8.478671E-03	    8.643246E-03	    1.521829E-02	   -1.000000E+00	    1.600028E-03	    1.600000E-03	    8.010000E+02	    1.572360E-07	    9.001889E-06	    4.585791E+04	    4.342676E+04	    1.000000E+00	    5.903156E-05	    2.800663E+01	
   -7.465021E-03	    9.526903E-03	    1.669851E-02	   -1.000000E+00	    1.600042E-03	    1.600000E-03	    8.010000E+02	    2.341107E-07	    1.102655E-05	    3.772687E+04	    4.296355E+04	    1.000000E+00	    6.508296E-05	    2.798077E+01	
   -6.400929E-03	    1.026783E-02	    1.792927E-02	   -1.000000E+00	    1.600057E-03	    1.600000E-03	    8.010000E+02	    3.181252E-07	    1.289388E-05	    3.246520E+04	    4.257826E+04	    1.000000E+00	    7.015927E-05	    2.795640E+01	
   -5.332168E-03	    1.085809E-02	    1.891161E-02	   -1.000000E+00	    1.600072E-03	    1.600000E-03	    8.010000E+02	    4.005640E-07	    1.451332E-05	    2.902199E+04	    4.231201E+04	    1.000000E+00	    7.420477E-05	    2.796694E+01	
   -4.297707E-03	    1.130516E-02	    1.965672E-02	   -1.000000E+00	    1.600085E-03	    1.600000E-03	    8.010000E+02	    4.734481E-07	    1.582025E-05	    2.676539E+04	    4.213007E+04	    1.000000E+00	    7.726982E-05	    2.798947E+01	
   -3.326086E-03	    1.162651E-02	    2.019264E-02	   -1.000000E+00	    1.600096E-03	    1.600000E-03	    8.010000E+02	    5.319502E-07	    1.680310E-05	    2.530178E+04	    4.200746E+04	    1.000000E+00	    7.947346E-05	    2.801175E+01	
   -2.434895E-03	    1.184415E-02	    2.055558E-02	   -1.000000E+00	    1.600103E-03	    1.600000E-03	    8.010000E+02	    5.746697E-07	    1.748943E-05	    2.437754E+04	    4.192722E+04	    1.000000E+00	    8.096615E-05	    2.802898E+01	
   -1.632298E-03	    1.198049E-02	    2.078271E-02	   -1.000000E+00	    1.600108E-03	    1.600000E-03	    8.010000E+02	    6.027501E-07	    1.792756E-05	    2.382410E+04	    4.187717E+04	    1.000000E+00	    8.190127E-05	    2.804002E+01	
   -9.193867E-04	    1.205580E-02	    2.090778E-02	   -1.000000E+00	    1.600111E-03	    1.600000E-03	    8.010000E+02	    6.186902E-07	    1.817173E-05	    2.352641E+04	    4.184830E+04	    1.000000E+00	    8.241786E-05	    2.804531E+01	
   -2.925536E-04	    1.208711E-02	    2.095911E-02	   -1.000000E+00	    1.600113E-03	    1.600000E-03	    8.010000E+02	    6.253702E-07	    1.827258E-05	    2.340427E+04	    4.183370E+04	    1.000000E+00	    8.263265E-05	    2.804569E+01	
    2.925536E-04	    1.208711E-02	    2.095911E-02	   -1.000000E+00	    1.600113E-03	    1.600000E-03	    8.010000E+02	    6.253702E-07	    1.827258E-05	    2.340427E+04	    4.183370E+04	    1.000000E+00	    8.263265E-05	    2.804569E+01	
    9.193867E-04	    1.205580E-02	    2.090778E-02	   -1.000000E+00	    1.600111E-03	    1.600000E-03	    8.010000E+02	    6.186902E-07	    1.817173E-05	    2.352641E+04	    4.184830E+04	    1.000000E+00	    8.241786E-05	    2.804531E+01	
    1.632298E-03	    1.198049E-02	    2.078271E-02	   -1.000000E+00	    1.600108E-03	    1.600000E-03	    8.010000E+02	    6.027501E-07	    1.792756E-05	    2.382410E+04	    4.187717E+04	    1.000000E+00	    8.190127E-05	    2.804002E+01	
    2.434895E-03	    1.184415E-02	    2.055558E-02	   -1.000000E+00	    1.600103E-03	    1.600000E-03	    8.010000E+02	    5.746697E-07	    1.748943E-05	    2.437754E+04	    4.192722E+04	    1.000000E+00	    8.096615E-05	    2.802898E+01	
    3.326086E-03	    1.162651E-02	    2.019264E-02	   -1.000000E+00	    1.600096E-03	    1.600000E-03	    8.010000E+02	    5.319502E-07	    1.680310E-05	    2.530178E+04	    4.200746E+04	    1.000000E+00	    7.947346E-05	    2.801175E+01	
    4.297707E-03	    1.130516E-02	    1.965672E-02	   -1.000000E+00	    1.600085E-03	    1.600000E-03	    8.010000E+02	    4.734481E-07	    1.582025E-05	    2.676539E+04	    4.213007E+04	    1.000000E+00	    7.726982E-05	    2.798947E+01	
    5.332168E-03	    1.085809E-02	    1.891161E-02	   -1.000000E+00	    1.600072E-03	    1.600000E-03	    8.010000E+02	    4.005640E-07	    1.451332E-05	    2.902199E+04	    4.231201E+04	    1.000000E+00	    7.420477E-05	    2.796694E+01	
    6.400929E-03	    1.026783E-02	    1.792927E-02	   -1.000000E+00	    1.600057E-03	    1.600000E-03	    8.010000E+02	    3.181252E-07	    1.289388E-05	    3.246520E+04	    4.257826E+04	    1.000000E+00	    7.015927E-05	    2.795640E+01	
    7.465021E-03	    9.526903E-03	    1.669851E-02	   -1.000000E+00	    1.600042E-03	    1.600000E-03	    8.010000E+02	    2.341107E-07	    1.102655E-05	    3.772687E+04	    4.296355E+04	    1.000000E+00	    6.508296E-05	    2.798077E+01	
    8.478671E-03	    8.643246E-03	    1.521829E-02	   -1.000000E+00	    1.600028E-03	    1.600000E-03	    8.010000E+02	    1.572360E-07	    9.001889E-06	    4.585791E+04	    4.342676E+04	    1.000000E+00	    5.903156E-05	    2.800663E+01	
    9.396199E-03	    7.643556E-03	    1.350793E-02	   -1.000000E+00	    1.600017E-03	    1.600000E-03	    8.010000E+02	    9.473710E-08	    6.939163E-06	    5.867046E+04	    4.382848E+04	    1.000000E+00	    5.218919E-05	    2.792402E+01	
    1.018068E-02	    6.572200E-03	    1.168775E-02	   -1.000000E+00	    1.600009E-03	    1.600000E-03	    8.010000E+02	    5.124356E-08	    5.079911E-06	    7.940527E+04	    4.446929E+04	    1.000000E+00	    4.486058E-05	    2.797859E+01	
    1.081132E-02	    5.484949E-03	    9.823845E-03	   -1.000000E+00	    1.600004E-03	    1.600000E-03	    8.010000E+02	    2.462723E-08	    3.507306E-06	    1.140750E+05	    4.519418E+04	    1.000000E+00	    3.742776E-05	    2.807226E+01	
    1.128663E-02	    4.439126E-03	    8.021776E-03	   -1.000000E+00	    1.600002E-03	    1.600000E-03	    8.010000E+02	    1.051337E-08	    2.287205E-06	    1.742592E+05	    4.609108E+04	    1.000000E+00	    3.028245E-05	    2.827729E+01	
    1.162205E-02	    3.483598E-03	    6.355599E-03	   -1.000000E+00	    1.600001E-03	    1.600000E-03	    8.010000E+02	    3.979382E-09	    1.406535E-06	    2.831180E+05	    4.705995E+04	    1.000000E+00	    2.375773E-05	    2.854424E+01	
    1.184372E-02	    2.651910E-03	    4.896933E-03	   -1.000000E+00	    1.600000E-03	    1.600000E-03	    8.010000E+02	    1.344759E-09	    8.205804E-07	    4.887751E+05	    4.827835E+04	    1.000000E+00	    1.808149E-05	    2.900101E+01	
    1.198111E-02	    1.960040E-03	    3.673744E-03	   -1.000000E+00	    1.600000E-03	    1.600000E-03	    8.010000E+02	    4.075450E-10	    4.554160E-07	    8.950870E+05	    4.979969E+04	    1.000000E+00	    1.336153E-05	    2.968230E+01	
    1.206115E-02	    1.408201E-03	    2.686708E-03	   -1.000000E+00	    1.600000E-03	    1.600000E-03	    8.010000E+02	    1.112822E-10	    2.409869E-07	    1.734603E+06	    5.164847E+04	    1.000000E+00	    9.598175E-06	    3.060106E+01	
    1.210515E-02	    9.849613E-04	    1.918048E-03	   -1.000000E+00	    1.600000E-03	    1.600000E-03	    8.010000E+02	    2.752815E-11	    1.218818E-07	    3.546455E+06	    5.384375E+04	    1.000000E+00	    6.712611E-06	    3.176456E+01	
    1.212808E-02	    6.719888E-04	    1.337132E-03	   -1.000000E+00	    1.600000E-03	    1.600000E-03	    8.010000E+02	    6.193608E-12	    5.892453E-08	    7.620525E+06	    5.624739E+04	    1.000000E+00	    4.579270E-06	    3.308464E+01	
    1.213951E-02	    4.482710E-04	    9.086085E-04	   -1.000000E+00	    1.600000E-03	    1.600000E-03	    8.010000E+02	    1.268185E-12	    2.711642E-08	    1.712704E+07	    5.838573E+04	    1.000000E+00	    3.054552E-06	    3.427635E+01	
    1.214500E-02	    2.932557E-04	    5.976353E-04	   -1.000000E+00	    1.600000E-03	    1.600000E-03	    8.010000E+02	    2.343955E-13	    1.171184E-08	    4.002287E+07	    5.903632E+04	    1.000000E+00	    1.998180E-06	    3.462393E+01	
    1.214759E-02	    1.888104E-04	    3.736535E-04	   -1.000000E+00	    1.600000E-03	    1.600000E-03	    8.010000E+02	    3.792511E-14	    4.571612E-09	    9.655508E+07	    5.567981E+04	    1.000000E+00	    1.286474E-06	    3.262858E+01	
    1.214880E-02	    1.201326E-04	    2.106605E-04	   -1.000000E+00	    1.600000E-03	    1.600000E-03	    8.010000E+02	    4.877032E-15	    1.452262E-09	    2.385184E+08	    4.372373E+04	    1.000000E+00	    8.185171E-07	    2.561220E+01	
    1.214937E-02	    7.587954E-05	    8.598451E-05	   -1.000000E+00	    1.600000E-03	    1.600000E-03	    8.010000E+02	    8.047618E-16	    6.006751E-10	    5.978673E+08	    1.827351E+04	    1.000000E+00	    5.169950E-07	    1.685249E+01	
    1.214953E-02	    6.023101E-05	    0.000000E+00	    0.000000E+00	    1.000000E-03	    1.000000E-03	    1.000000E+03	    0.000000E+00	    0.000000E+00	    6.526182E+05	    0.000000E+00	    1.000000E+00	    0.000000E+00	    0.000000E+00	
   -1.214858E-02	    6.021417E-05	    0.000000E+00	    0.000000E+00	    1.000000E-03	    1.000000E-03	    1.000000E+03	    0.000000E+00	    0.000000E+00	    6.526182E+05	    0.000000E+00	    1.000000E+00	    0.000000E+00	    0.000000E+00	
   -1.214817E-02	    7.585678E-05	    2.103082E-04	   -1.000000E+00	    1.600000E-03	    1.600000E-03	    8.010000E+02	    9.312167E-12	    7.587128E-09	    6.526182E+05	    1.089759E+04	    1.000000E+00	    1.713393E-06	    1.599092E-01	
   -1.214690E-02	    1.200896E-04	    5.152517E-04	   -1.000000E+00	    1.600000E-03	    1.600000E-03	    8.010000E+02	    5.010093E-15	    2.078671E-10	    3.323323E+07	    2.588369E+04	    2.642644E-04	    2.712601E-06	    1.296797E-10	
   -1.214461E-02	    1.887261E-04	    9.138595E-04	   -1.000000E+00	    1.600000E-03	    1.600000E-03	    8.010000E+02	    4.183665E-14	    7.029411E-10	    1.345843E+07	    3.294034E+04	    6.456864E-04	    4.263241E-06	    1.378114E-09	
   -1.214038E-02	    2.930851E-04	    1.461498E-03	   -1.000000E+00	    1.600000E-03	    1.600000E-03	    8.010000E+02	    2.998308E-13	    2.089016E-09	    5.580819E+06	    3.491280E+04	    6.527042E-03	    6.621310E-06	    1.046794E-08	
   -1.213245E-02	    4.479201E-04	    2.221571E-03	   -1.000000E+00	    1.600000E-03	    1.600000E-03	    8.010000E+02	    1.803608E-12	    5.613463E-09	    2.492993E+06	    3.451273E+04	    9.999747E-01	    1.012076E-05	    6.224744E-08	
   -1.211752E-02	    6.712681E-04	    3.268424E-03	   -1.000000E+00	    1.600000E-03	    1.600000E-03	    8.010000E+02	    1.126216E-11	    1.560112E-08	    1.109600E+06	    3.322777E+04	    1.000000E+00	    1.517047E-05	    3.742165E-07	
   -1.208970E-02	    9.835057E-04	    4.686539E-03	   -1.000000E+00	    1.600000E-03	    1.600000E-03	    8.010000E+02	    6.686455E-11	    4.312515E-08	    5.166152E+05	    3.177913E+04	    1.000000E+00	    2.223341E-05	    2.124898E-06	
   -1.203915E-02	    1.405349E-03	    6.561094E-03	   -1.000000E+00	    1.600000E-03	    1.600000E-03	    8.010000E+02	    3.695033E-10	    1.166318E-07	    2.528314E+05	    3.044515E+04	    1.000000E+00	    3.178221E-05	    1.124958E-05	
   -1.195071E-02	    1.954673E-03	    8.965025E-03	   -1.000000E+00	    1.600000E-03	    1.600000E-03	    8.010000E+02	    1.855568E-09	    3.024663E-07	    1.305667E+05	    2.930599E+04	    1.000000E+00	    4.422791E-05	    5.437927E-05	
   -1.180311E-02	    2.642282E-03	    1.193903E-02	   -1.000000E+00	    1.600001E-03	    1.600000E-03	    8.010000E+02	    8.278312E-09	    7.375754E-07	    7.136695E+04	    2.834922E+04	    1.000000E+00	    5.982465E-05	    2.346837E-04	
   -1.156975E-02	    3.467222E-03	    1.547817E-02	   -1.000000E+00	    1.600006E-03	    1.600000E-03	    8.010000E+02	    3.234624E-08	    1.671283E-06	    4.138651E+04	    2.755991E+04	    1.000000E+00	    7.856290E-05	    8.914595E-04	
   -1.122198E-02	    4.412811E-03	    1.951091E-02	   -1.000000E+00	    1.600020E-03	    1.600000E-03	    8.010000E+02	    1.096167E-07	    3.490620E-06	    2.550693E+04	    2.690651E+04	    1.000000E+00	    1.000773E-04	    2.949403E-03	
   -1.073491E-02	    5.445087E-03	    2.385993E-02	   -1.000000E+00	    1.600057E-03	    1.600000E-03	    8.010000E+02	    3.170457E-07	    6.618402E-06	    1.672106E+04	    2.628185E+04	    1.000000E+00	    1.236077E-04	    8.332548E-03	
   -1.009458E-02	    6.515309E-03	    2.834454E-02	   -1.000000E+00	    1.600142E-03	    1.600000E-03	    8.010000E+02	    7.875273E-07	    1.145946E-05	    1.165550E+04	    2.574449E+04	    1.000000E+00	    1.480515E-04	    2.027449E-02	
   -9.303914E-03	    7.566960E-03	    3.270949E-02	   -1.000000E+00	    1.600303E-03	    1.600000E-03	    8.010000E+02	    1.682816E-06	    1.811614E-05	    8.623064E+03	    2.523829E+04	    1.000000E+00	    1.721192E-04	    4.247140E-02	
   -8.384627E-03	    8.545654E-03	    3.679963E-02	   -1.000000E+00	    1.600568E-03	    1.600000E-03	    8.010000E+02	    3.154244E-06	    2.657005E-05	    6.747294E+03	    2.485800E+04	    1.000000E+00	    1.945603E-04	    7.840819E-02	
   -7.373859E-03	    9.408665E-03	    4.032676E-02	   -1.000000E+00	    1.600921E-03	    1.600000E-03	    8.010000E+02	    5.114666E-06	    3.547544E-05	    5.555754E+03	    2.443101E+04	    1.000000E+00	    2.143834E-04	    1.249565E-01	
   -6.316762E-03	    1.013078E-02	    4.325092E-02	   -1.000000E+00	    1.601334E-03	    1.600000E-03	    8.010000E+02	    7.413633E-06	    4.427810E-05	    4.783991E+03	    2.405333E+04	    1.000000E+00	    2.309951E-04	    1.783225E-01	
   -5.258079E-03	    1.070506E-02	    4.557968E-02	   -1.000000E+00	    1.601765E-03	    1.600000E-03	    8.010000E+02	    9.807860E-06	    5.238866E-05	    4.278539E+03	    2.376002E+04	    1.000000E+00	    2.442224E-04	    2.330350E-01	