Title="Fields"
Variables="X""Y""Velocity""Phi""Effective Viscosity""Dynamic Viscosity""Density""Eddy Viscosity""K""Omega""S""F1SST""distance""GEN"
Zone I=82 J=82 F=POINT
   -2.601158E-02	    1.195748E-04	    0.000000E+00	   -1.000000E+00	    1.640000E-03	    1.640000E-03	    7.900000E+02	    0.000000E+00	    0.000000E+00	    2.972037E+08	    0.000000E+00	    1.000000E+00	    0.000000E+00	    0.000000E+00	
   -2.601899E-02	    1.382056E-04	    0.000000E+00	   -1.000000E+00	    1.640000E-03	    1.640000E-03	    7.900000E+02	    0.000000E+00	    0.000000E+00	    2.972037E+08	    0.000000E+00	    1.000000E+00	    0.000000E+00	    0.000000E+00	
   -2.603737E-02	    1.845420E-04	    0.000000E+00	   -1.000000E+00	    1.640000E-03	    1.640000E-03	    7.900000E+02	    0.000000E+00	    0.000000E+00	    1.666935E+08	    0.000000E+00	    1.000000E+00	    0.000000E+00	    0.000000E+00	
   -2.606160E-02	    2.460265E-04	    0.000000E+00	   -1.000000E+00	    1.640000E-03	    1.640000E-03	    7.900000E+02	    0.000000E+00	    0.000000E+00	    9.378873E+07	    0.000000E+00	    1.000000E+00	    0.000000E+00	    0.000000E+00	
   -2.609331E-02	    3.271194E-04	    0.000000E+00	   -1.000000E+00	    1.640000E-03	    1.640000E-03	    7.900000E+02	    0.000000E+00	    0.000000E+00	    5.305283E+07	    0.000000E+00	    1.000000E+00	    0.000000E+00	    0.000000E+00	
   -2.613440E-02	    4.333274E-04	    0.000000E+00	   -1.000000E+00	    1.640000E-03	    1.640000E-03	    7.900000E+02	    0.000000E+00	    0.000000E+00	    3.023416E+07	    0.000000E+00	    1.000000E+00	    0.000000E+00	    0.000000E+00	
   -2.618705E-02	    5.713383E-04	    0.000000E+00	   -1.000000E+00	    1.640000E-03	    1.640000E-03	    7.900000E+02	    0.000000E+00	    0.000000E+00	    1.739223E+07	    0.000000E+00	    1.000000E+00	    0.000000E+00	    0.000000E+00	
   -2.625365E-02	    7.491351E-04	    0.000000E+00	   -1.000000E+00	    1.640000E-03	    1.640000E-03	    7.900000E+02	    0.000000E+00	    0.000000E+00	    1.011664E+07	    0.000000E+00	    1.000000E+00	    0.000000E+00	    0.000000E+00	
   -2.633668E-02	    9.760760E-04	    0.000000E+00	   -1.000000E+00	    1.640000E-03	    1.640000E-03	    7.900000E+02	    0.000000E+00	    0.000000E+00	    5.959483E+06	    0.000000E+00	    1.000000E+00	    0.000000E+00	    0.000000E+00	
   -2.643847E-02	    1.262925E-03	    0.000000E+00	   -1.000000E+00	    1.640000E-03	    1.640000E-03	    7.900000E+02	    0.000000E+00	    0.000000E+00	    3.559959E+06	    0.000000E+00	    1.000000E+00	    0.000000E+00	    0.000000E+00	
   -2.656091E-02	    1.621816E-03	    0.000000E+00	   -1.000000E+00	    1.640000E-03	    1.640000E-03	    7.900000E+02	    0.000000E+00	    0.000000E+00	    2.158871E+06	    0.000000E+00	    1.000000E+00	    0.000000E+00	    0.000000E+00	
   -2.670503E-02	    2.066142E-03	    0.000000E+00	   -1.000000E+00	    1.640000E-03	    1.640000E-03	    7.900000E+02	    0.000000E+00	    0.000000E+00	    1.330292E+06	    0.000000E+00	    1.000000E+00	    0.000000E+00	    0.000000E+00	
   -2.687049E-02	    2.610330E-03	    0.000000E+00	   -1.000000E+00	    1.640000E-03	    1.640000E-03	    7.900000E+02	    0.000000E+00	    0.000000E+00	    8.335319E+05	    0.000000E+00	    1.000000E+00	    0.000000E+00	    0.000000E+00	
   -2.705489E-02	    3.269499E-03	    0.000000E+00	   -1.000000E+00	    1.640000E-03	    1.640000E-03	    7.900000E+02	    0.000000E+00	    0.000000E+00	    5.313810E+05	    0.000000E+00	    1.000000E+00	    0.000000E+00	    0.000000E+00	
   -2.725313E-02	    4.058954E-03	    0.000000E+00	   -1.000000E+00	    1.640000E-03	    1.640000E-03	    7.900000E+02	    0.000000E+00	    0.000000E+00	    3.448311E+05	    0.000000E+00	    1.000000E+00	    0.000000E+00	    0.000000E+00	
   -2.745663E-02	    4.993488E-03	    0.000000E+00	   -1.000000E+00	    1.640000E-03	    1.640000E-03	    7.900000E+02	    0.000000E+00	    0.000000E+00	    2.278795E+05	    0.000000E+00	    1.000000E+00	    0.000000E+00	    0.000000E+00	
   -2.765269E-02	    6.086450E-03	    0.000000E+00	   -1.000000E+00	    1.640000E-03	    1.640000E-03	    7.900000E+02	    0.000000E+00	    0.000000E+00	    1.534184E+05	    0.000000E+00	    1.000000E+00	    0.000000E+00	    0.000000E+00	
   -2.782402E-02	    7.348566E-03	    0.000000E+00	   -1.000000E+00	    1.640000E-03	    1.640000E-03	    7.900000E+02	    0.000000E+00	    0.000000E+00	    1.052707E+05	    0.000000E+00	    1.000000E+00	    0.000000E+00	    0.000000E+00	
   -2.794857E-02	    8.786512E-03	    0.000000E+00	   -1.000000E+00	    1.640000E-03	    1.640000E-03	    7.900000E+02	    0.000000E+00	    0.000000E+00	    7.365516E+04	    0.000000E+00	    1.000000E+00	    0.000000E+00	    0.000000E+00	
   -2.799988E-02	    1.040132E-02	    0.000000E+00	   -1.000000E+00	    1.640000E-03	    1.640000E-03	    7.900000E+02	    0.000000E+00	    0.000000E+00	    5.257754E+04	    0.000000E+00	    1.000000E+00	    0.000000E+00	    0.000000E+00	
   -2.794811E-02	    1.218676E-02	    0.000000E+00	   -1.000000E+00	    1.640000E-03	    1.640000E-03	    7.900000E+02	    0.000000E+00	    0.000000E+00	    3.831442E+04	    0.000000E+00	    1.000000E+00	    0.000000E+00	    0.000000E+00	
   -2.776173E-02	    1.412789E-02	    0.000000E+00	   -1.000000E+00	    1.640000E-03	    1.640000E-03	    7.900000E+02	    0.000000E+00	    0.000000E+00	    2.852120E+04	    0.000000E+00	    1.000000E+00	    0.000000E+00	    0.000000E+00	
   -2.741006E-02	    1.620026E-02	    0.000000E+00	   -1.000000E+00	    1.640000E-03	    1.640000E-03	    7.900000E+02	    0.000000E+00	    0.000000E+00	    2.170158E+04	    0.000000E+00	    1.000000E+00	    0.000000E+00	    0.000000E+00	
   -2.686626E-02	    1.836982E-02	    0.000000E+00	   -1.000000E+00	    1.640000E-03	    1.640000E-03	    7.900000E+02	    0.000000E+00	    0.000000E+00	    1.688777E+04	    0.000000E+00	    1.000000E+00	    0.000000E+00	    0.000000E+00	
   -2.611058E-02	    2.059414E-02	    0.000000E+00	   -1.000000E+00	    1.640000E-03	    1.640000E-03	    7.900000E+02	    0.000000E+00	    0.000000E+00	    1.344574E+04	    0.000000E+00	    1.000000E+00	    0.000000E+00	    0.000000E+00	
   -2.513318E-02	    2.282480E-02	    0.000000E+00	   -1.000000E+00	    1.640000E-03	    1.640000E-03	    7.900000E+02	    0.000000E+00	    0.000000E+00	    1.095473E+04	    0.000000E+00	    1.000000E+00	    0.000000E+00	    0.000000E+00	
   -2.393611E-02	    2.501087E-02	    0.000000E+00	   -1.000000E+00	    1.640000E-03	    1.640000E-03	    7.900000E+02	    0.000000E+00	    0.000000E+00	    9.131973E+03	    0.000000E+00	    1.000000E+00	    0.000000E+00	    0.000000E+00	
   -2.253380E-02	    2.710297E-02	    0.000000E+00	   -1.000000E+00	    1.640000E-03	    1.640000E-03	    7.900000E+02	    0.000000E+00	    0.000000E+00	    7.784867E+03	    0.000000E+00	    1.000000E+00	    0.000000E+00	    0.000000E+00	
   -2.095210E-02	    2.905731E-02	    0.000000E+00	   -1.000000E+00	    1.640000E-03	    1.640000E-03	    7.900000E+02	    0.000000E+00	    0.000000E+00	    6.780958E+03	    0.000000E+00	    1.000000E+00	    0.000000E+00	    0.000000E+00	
   -1.922574E-02	    3.083897E-02	    0.000000E+00	   -1.000000E+00	    1.640000E-03	    1.640000E-03	    7.900000E+02	    0.000000E+00	    0.000000E+00	    6.027839E+03	    0.000000E+00	    1.000000E+00	    0.000000E+00	    0.000000E+00	
   -1.739507E-02	    3.242397E-02	    0.000000E+00	   -1.000000E+00	    1.640000E-03	    1.640000E-03	    7.900000E+02	    0.000000E+00	    0.000000E+00	    5.460207E+03	    0.000000E+00	    1.000000E+00	    0.000000E+00	    0.000000E+00	
   -1.550226E-02	    3.379981E-02	    0.000000E+00	   -1.000000E+00	    1.640000E-03	    1.640000E-03	    7.900000E+02	    0.000000E+00	    0.000000E+00	    5.031374E+03	    0.000000E+00	    1.000000E+00	    0.000000E+00	    0.000000E+00	
   -1.358802E-02	    3.496482E-02	    0.000000E+00	   -1.000000E+00	    1.640000E-03	    1.640000E-03	    7.900000E+02	    0.000000E+00	    0.000000E+00	    4.707545E+03	    0.000000E+00	    1.000000E+00	    0.000000E+00	    0.000000E+00	
   -1.168890E-02	    3.592633E-02	    0.000000E+00	   -1.000000E+00	    1.640000E-03	    1.640000E-03	    7.900000E+02	    0.000000E+00	    0.000000E+00	    4.463952E+03	    0.000000E+00	    1.000000E+00	    0.000000E+00	    0.000000E+00	
   -9.835627E-03	    3.669852E-02	    0.000000E+00	   -1.000000E+00	    1.640000E-03	    1.640000E-03	    7.900000E+02	    0.000000E+00	    0.000000E+00	    4.282215E+03	    0.000000E+00	    1.000000E+00	    0.000000E+00	    0.000000E+00	
   -8.052358E-03	    3.730002E-02	    0.000000E+00	   -1.000000E+00	    1.640000E-03	    1.640000E-03	    7.900000E+02	    0.000000E+00	    0.000000E+00	    4.148519E+03	    0.000000E+00	    1.000000E+00	    0.000000E+00	    0.000000E+00	
   -6.356700E-03	    3.775176E-02	    0.000000E+00	   -1.000000E+00	    1.640000E-03	    1.640000E-03	    7.900000E+02	    0.000000E+00	    0.000000E+00	    4.052352E+03	    0.000000E+00	    1.000000E+00	    0.000000E+00	    0.000000E+00	
   -4.760263E-03	    3.807526E-02	    0.000000E+00	   -1.000000E+00	    1.640000E-03	    1.640000E-03	    7.900000E+02	    0.000000E+00	    0.000000E+00	    3.985613E+03	    0.000000E+00	    1.000000E+00	    0.000000E+00	    0.000000E+00	
   -3.269522E-03	    3.829133E-02	    0.000000E+00	   -1.000000E+00	    1.640000E-03	    1.640000E-03	    7.900000E+02	    0.000000E+00	    0.000000E+00	    3.941993E+03	    0.000000E+00	    1.000000E+00	    0.000000E+00	    0.000000E+00	
   -1.886804E-03	    3.841923E-02	    0.000000E+00	   -1.000000E+00	    1.640000E-03	    1.640000E-03	    7.900000E+02	    0.000000E+00	    0.000000E+00	    3.916525E+03	    0.000000E+00	    1.000000E+00	    0.000000E+00	    0.000000E+00	
   -6.112466E-04	    3.847620E-02	    0.000000E+00	   -1.000000E+00	    1.640000E-03	    1.640000E-03	    7.900000E+02	    0.000000E+00	    0.000000E+00	    3.905262E+03	    0.000000E+00	    1.000000E+00	    0.000000E+00	    0.000000E+00	
    6.112466E-04	    3.847620E-02	    0.000000E+00	   -1.000000E+00	    1.640000E-03	    1.640000E-03	    7.900000E+02	    0.000000E+00	    0.000000E+00	    3.905262E+03	    0.000000E+00	    1.000000E+00	    0.000000E+00	    0.000000E+00	
    1.886804E-03	    3.841923E-02	    0.000000E+00	   -1.000000E+00	    1.640000E-03	    1.640000E-03	    7.900000E+02	    0.000000E+00	    0.000000E+00	    3.916525E+03	    0.000000E+00	    1.000000E+00	    0.000000E+00	    0.000000E+00	
    3.269522E-03	    3.829133E-02	    0.000000E+00	   -1.000000E+00	    1.640000E-03	    1.640000E-03	    7.900000E+02	    0.000000E+00	    0.000000E+00	    3.941993E+03	    0.000000E+00	    1.000000E+00	    0.000000E+00	    0.000000E+00	
    4.760263E-03	    3.807526E-02	    0.000000E+00	   -1.000000E+00	    1.640000E-03	    1.640000E-03	    7.900000E+02	    0.000000E+00	    0.000000E+00	    3.985613E+03	    0.000000E+00	    1.000000E+00	    0.000000E+00	    0.000000E+00	
    6.356700E-03	    3.775176E-02	    0.000000E+00	   -1.000000E+00	    1.640000E-03	    1.640000E-03	    7.900000E+02	    0.000000E+00	    0.000000E+00	    4.052352E+03	    0.000000E+00	    1.000000E+00	    0.000000E+00	    0.000000E+00	
    8.052358E-03	    3.730002E-02	    0.000000E+00	   -1.000000E+00	    1.640000E-03	    1.640000E-03	    7.900000E+02	    0.000000E+00	    0.000000E+00	    4.148519E+03	    0.000000E+00	    1.000000E+00	    0.000000E+00	    0.000000E+00	
    9.835627E-03	    3.669852E-02	    0.000000E+00	   -1.000000E+00	    1.640000E-03	    1.640000E-03	    7.900000E+02	    0.000000E+00	    0.000000E+00	    4.282215E+03	    0.000000E+00	    1.000000E+00	    0.000000E+00	    0.000000E+00	
    1.168890E-02	    3.592633E-02	    0.000000E+00	   -1.000000E+00	    1.640000E-03	    1.640000E-03	    7.900000E+02	    0.000000E+00	    0.000000E+00	    4.463952E+03	    0.000000E+00	    1.000000E+00	    0.000000E+00	    0.000000E+00	
    1.358802E-02	    3.496482E-02	    0.000000E+00	   -1.000000E+00	    1.640000E-03	    1.640000E-03	    7.900000E+02	    0.000000E+00	    0.000000E+00	    4.707545E+03	    0.000000E+00	    1.000000E+00	    0.000000E+00	    0.000000E+00	
    1.550226E-02	    3.379981E-02	    0.000000E+00	   -1.000000E+00	    1.640000E-03	    1.640000E-03	    7.900000E+02	    0.000000E+00	    0.000000E+00	    5.031374E+03	    0.000000E+00	    1.000000E+00	    0.000000E+00	    0.000000E+00	
    1.739507E-02	    3.242397E-02	    0.000000E+00	   -1.000000E+00	    1.640000E-03	    1.640000E-03	    7.900000E+02	    0.000000E+00	    0.000000E+00	    5.460207E+03	    0.000000E+00	    1.000000E+00	    0.000000E+00	    0.000000E+00	
    1.922574E-02	    3.083897E-02	    0.000000E+00	   -1.000000E+00	    1.640000E-03	    1.640000E-03	    7.900000E+02	    0.000000E+00	    0.000000E+00	    6.027839E+03	    0.000000E+00	    1.000000E+00	    0.000000E+00	    0.000000E+00	
    2.095210E-02	    2.905731E-02	    0.000000E+00	   -1.000000E+00	    1.640000E-03	    1.640000E-03	    7.900000E+02	    0.000000E+00	    0.000000E+00	    6.780958E+03	    0.000000E+00	    1.000000E+00	    0.000000E+00	    0.000000E+00	
    2.253380E-02	    2.710297E-02	    0.000000E+00	   -1.000000E+00	    1.640000E-03	    1.640000E-03	    7.900000E+02	    0.000000E+00	    0.000000E+00	    7.784867E+03	    0.000000E+00	    1.000000E+00	    0.000000E+00	    0.000000E+00	
    2.393611E-02	    2.501087E-02	    0.000000E+00	   -1.000000E+00	    1.640000E-03	    1.640000E-03	    7.900000E+02	    0.000000E+00	    0.000000E+00	    9.131973E+03	    0.000000E+00	    1.000000E+00	    0.000000E+00	    0.000000E+00	
    2.513318E-02	    2.282480E-02	    0.000000E+00	   -1.000000E+00	    1.640000E-03	    1.640000E-03	    7.900000E+02	    0.000000E+00	    0.000000E+00	    1.095473E+04	    0.000000E+00	    1.000000E+00	    0.000000E+00	    0.000000E+00	
    2.611058E-02	    2.059414E-02	    0.000000E+00	   -1.000000E+00	    1.640000E-03	    1.640000E-03	    7.900000E+02	    0.000000E+00	    0.000000E+00	    1.344574E+04	    0.000000E+00	    1.000000E+00	    0.000000E+00	    0.000000E+00	
    2.686626E-02	    1.836982E-02	    0.000000E+00	   -1.000000E+00	    1.640000E-03	    1.640000E-03	    7.900000E+02	    0.000000E+00	    0.000000E+00	    1.688777E+04	    0.000000E+00	    1.000000E+00	    0.000000E+00	    0.000000E+00	
    2.741006E-02	    1.620026E-02	    0.000000E+00	   -1.000000E+00	    1.640000E-03	    1.640000E-03	    7.900000E+02	    0.000000E+00	    0.000000E+00	    2.170158E+04	    0.000000E+00	    1.000000E+00	    0.000000E+00	    0.000000E+00	
    2.776173E-02	    1.412789E-02	    0.000000E+00	   -1.000000E+00	    1.640000E-03	    1.640000E-03	    7.900000E+02	    0.000000E+00	    0.000000E+00	    2.852120E+04	    0.000000E+00	    1.000000E+00	    0.000000E+00	    0.000000E+00	
    2.794811E-02	    1.218676E-02	    0.000000E+00	   -1.000000E+00	    1.640000E-03	    1.640000E-03	    7.900000E+02	    0.000000E+00	    0.000000E+00	    3.831442E+04	    0.000000E+00	    1.000000E+00	    0.000000E+00	    0.000000E+00	
    2.799988E-02	    1.040132E-02	    0.000000E+00	   -1.000000E+00	    1.640000E-03	    1.640000E-03	    7.900000E+02	    0.000000E+00	    0.000000E+00	    5.257754E+04	    0.000000E+00	    1.000000E+00	    0.000000E+00	    0.000000E+00	
    2.794857E-02	    8.786512E-03	    0.000000E+00	   -1.000000E+00	    1.640000E-03	    1.640000E-03	    7.900000E+02	    0.000000E+00	    0.000000E+00	    7.365516E+04	    0.000000E+00	    1.000000E+00	    0.000000E+00	    0.000000E+00	
    2.782402E-02	    7.348566E-03	    0.000000E+00	   -1.000000E+00	    1.640000E-03	    1.640000E-03	    7.900000E+02	    0.000000E+00	    0.000000E+00	    1.052707E+05	    0.000000E+00	    1.000000E+00	    0.000000E+00	    0.000000E+00	
    2.765269E-02	    6.086450E-03	    0.000000E+00	   -1.000000E+00	    1.640000E-03	    1.640000E-03	    7.900000E+02	    0.000000E+00	    0.000000E+00	    1.534184E+05	    0.000000E+00	    1.000000E+00	    0.000000E+00	    0.000000E+00	
    2.745663E-02	    4.993488E-03	    0.000000E+00	   -1.000000E+00	    1.640000E-03	    1.640000E-03	    7.900000E+02	    0.000000E+00	    0.000000E+00	    2.278795E+05	    0.000000E+00	    1.000000E+00	    0.000000E+00	    0.000000E+00	
    2.725313E-02	    4.058954E-03	    0.000000E+00	   -1.000000E+00	    1.640000E-03	    1.640000E-03	    7.900000E+02	    0.000000E+00	    0.000000E+00	    3.448311E+05	    0.000000E+00	    1.000000E+00	    0.000000E+00	    0.000000E+00	
    2.705489E-02	    3.269499E-03	    0.000000E+00	   -1.000000E+00	    1.640000E-03	    1.640000E-03	    7.900000E+02	    0.000000E+00	    0.000000E+00	    5.313810E+05	    0.000000E+00	    1.000000E+00	    0.000000E+00	    0.000000E+00	
    2.687049E-02	    2.610330E-03	    0.000000E+00	   -1.000000E+00	    1.640000E-03	    1.640000E-03	    7.900000E+02	    0.000000E+00	    0.000000E+00	    8.335319E+05	    0.000000E+00	    1.000000E+00	    0.000000E+00	    0.000000E+00	
    2.670503E-02	    2.066142E-03	    0.000000E+00	   -1.000000E+00	    1.640000E-03	    1.640000E-03	    7.900000E+02	    0.000000E+00	    0.000000E+00	    1.330292E+06	    0.000000E+00	    1.000000E+00	    0.000000E+00	    0.000000E+00	
    2.656091E-02	    1.621816E-03	    0.000000E+00	   -1.000000E+00	    1.640000E-03	    1.640000E-03	    7.900000E+02	    0.000000E+00	    0.000000E+00	    2.158871E+06	    0.000000E+00	    1.000000E+00	    0.000000E+00	    0.000000E+00	
    2.643847E-02	    1.262925E-03	    0.000000E+00	   -1.000000E+00	    1.640000E-03	    1.640000E-03	    7.900000E+02	    0.000000E+00	    0.000000E+00	    3.559959E+06	    0.000000E+00	    1.000000E+00	    0.000000E+00	    0.000000E+00	
    2.633668E-02	    9.760760E-04	    0.000000E+00	   -1.000000E+00	    1.640000E-03	    1.640000E-03	    7.900000E+02	    0.000000E+00	    0.000000E+00	    5.959483E+06	    0.000000E+00	    1.000000E+00	    0.000000E+00	    0.000000E+00	
    2.625365E-02	    7.491351E-04	    0.000000E+00	   -1.000000E+00	    1.640000E-03	    1.640000E-03	    7.900000E+02	    0.000000E+00	    0.000000E+00	    1.011664E+07	    0.000000E+00	    1.000000E+00	    0.000000E+00	    0.000000E+00	
    2.618705E-02	    5.713383E-04	    0.000000E+00	   -1.000000E+00	    1.640000E-03	    1.640000E-03	    7.900000E+02	    0.000000E+00	    0.000000E+00	    1.739223E+07	    0.000000E+00	    1.000000E+00	    0.000000E+00	    0.000000E+00	
    2.613440E-02	    4.333274E-04	    0.000000E+00	   -1.000000E+00	    1.640000E-03	    1.640000E-03	    7.900000E+02	    0.000000E+00	    0.000000E+00	    3.023416E+07	    0.000000E+00	    1.000000E+00	    0.000000E+00	    0.000000E+00	
    2.609331E-02	    3.271194E-04	    0.000000E+00	   -1.000000E+00	    1.640000E-03	    1.640000E-03	    7.900000E+02	    0.000000E+00	    0.000000E+00	    5.305283E+07	    0.000000E+00	    1.000000E+00	    0.000000E+00	    0.000000E+00	
    2.606160E-02	    2.460265E-04	    0.000000E+00	   -1.000000E+00	    1.640000E-03	    1.640000E-03	    7.900000E+02	    0.000000E+00	    0.000000E+00	    9.378873E+07	    0.000000E+00	    1.000000E+00	    0.000000E+00	    0.000000E+00	
    2.603737E-02	    1.845420E-04	    0.000000E+00	   -1.000000E+00	    1.640000E-03	    1.640000E-03	    7.900000E+02	    0.000000E+00	    0.000000E+00	    1.666935E+08	    0.000000E+00	    1.000000E+00	    0.000000E+00	    0.000000E+00	
    2.601899E-02	    1.382056E-04	    0.000000E+00	   -1.000000E+00	    1.640000E-03	    1.640000E-03	    7.900000E+02	    0.000000E+00	    0.000000E+00	    2.972037E+08	    0.000000E+00	    1.000000E+00	    0.000000E+00	    0.000000E+00	
    2.601158E-02	    1.195748E-04	    0.000000E+00	   -1.000000E+00	    1.640000E-03	    1.640000E-03	    7.900000E+02	    0.000000E+00	    0.000000E+00	    0.000000E+00	    0.000000E+00	    1.000000E+00	    0.000000E+00	    0.000000E+00	
   -2.601097E-02	    1.198126E-04	    0.000000E+00	   -1.000000E+00	    1.640000E-03	    1.640000E-03	    7.900000E+02	    0.000000E+00	    0.000000E+00	    0.000000E+00	    0.000000E+00	    1.000000E+00	    0.000000E+00	    0.000000E+00	
   -2.601830E-02	    1.384800E-04	    6.722863E-05	   -1.000000E+00	    1.640000E-03	    1.640000E-03	    7.900000E+02	    1.634417E-15	    6.148796E-10	    2.972037E+08	    8.095160E+03	    1.000000E+00	    7.475259E-07	    6.536081E+00	
   -2.603644E-02	    1.849068E-04	    2.058885E-04	   -1.000000E+00	    1.640000E-03	    1.640000E-03	    7.900000E+02	    6.577822E-15	    1.387950E-09	    1.666935E+08	    4.254432E+04	    1.000000E+00	    9.981458E-07	    1.686754E+01	
   -2.606036E-02	    2.465099E-04	    3.592469E-04	   -1.000000E+00	    1.640000E-03	    1.640000E-03	    7.900000E+02	    3.568406E-14	    4.236409E-09	    9.378873E+07	    7.287197E+04	    1.000000E+00	    1.330694E-06	    2.893054E+01	
   -2.609166E-02	    3.277570E-04	    5.383991E-04	   -1.000000E+00	    1.640000E-03	    1.640000E-03	    7.900000E+02	    1.424788E-13	    9.568236E-09	    5.305283E+07	    9.258056E+04	    1.000000E+00	    1.769290E-06	    3.685893E+01	
   -2.613221E-02	    4.341631E-04	    7.556924E-04	   -1.000000E+00	    1.640000E-03	    1.640000E-03	    7.900000E+02	    4.964799E-13	    1.900082E-08	    3.023416E+07	    1.039361E+05	    1.000000E+00	    2.343713E-06	    4.154732E+01	
   -2.618416E-02	    5.724248E-04	    1.024401E-03	   -1.000000E+00	    1.640000E-03	    1.640000E-03	    7.900000E+02	    1.603182E-12	    3.529482E-08	    1.739223E+07	    1.098608E+05	    1.000000E+00	    3.090123E-06	    4.415646E+01	
   -2.624985E-02	    7.505340E-04	    1.358407E-03	   -1.000000E+00	    1.640000E-03	    1.640000E-03	    7.900000E+02	    4.915352E-12	    6.294540E-08	    1.011664E+07	    1.123578E+05	    1.000000E+00	    4.051680E-06	    4.548436E+01	
   -2.633171E-02	    9.778557E-04	    1.773403E-03	   -1.000000E+00	    1.640000E-03	    1.640000E-03	    7.900000E+02	    1.448459E-11	    1.092667E-07	    5.959483E+06	    1.127917E+05	    1.000000E+00	    5.278969E-06	    4.608651E+01	
   -2.643201E-02	    1.265157E-03	    2.288354E-03	   -1.000000E+00	    1.640000E-03	    1.640000E-03	    7.900000E+02	    4.134556E-11	    1.863146E-07	    3.559959E+06	    1.121698E+05	    1.000000E+00	    6.830159E-06	    4.638798E+01	
   -2.655258E-02	    1.624571E-03	    2.925190E-03	   -1.000000E+00	    1.640000E-03	    1.640000E-03	    7.900000E+02	    1.148435E-10	    3.138384E-07	    2.158871E+06	    1.111302E+05	    1.000000E+00	    8.770817E-06	    4.667107E+01	
   -2.669437E-02	    2.069473E-03	    3.707727E-03	   -1.000000E+00	    1.640000E-03	    1.640000E-03	    7.900000E+02	    3.110179E-10	    5.237274E-07	    1.330292E+06	    1.099894E+05	    1.000000E+00	    1.117326E-05	    4.708919E+01	
   -2.685693E-02	    2.614263E-03	    4.659852E-03	   -1.000000E+00	    1.640000E-03	    1.640000E-03	    7.900000E+02	    8.210555E-10	    8.662987E-07	    8.335319E+05	    1.088228E+05	    1.000000E+00	    1.411537E-05	    4.769162E+01	
   -2.703780E-02	    3.274009E-03	    5.807691E-03	   -1.000000E+00	    1.640000E-03	    1.640000E-03	    7.900000E+02	    2.113244E-09	    1.421440E-06	    5.313810E+05	    1.077215E+05	    1.000000E+00	    1.767870E-05	    4.853865E+01	
   -2.723176E-02	    4.063933E-03	    7.176015E-03	   -1.000000E+00	    1.640001E-03	    1.640000E-03	    7.900000E+02	    5.297280E-09	    2.312237E-06	    3.448311E+05	    1.066751E+05	    1.000000E+00	    2.194574E-05	    4.963861E+01	
   -2.743015E-02	    4.998711E-03	    8.788519E-03	   -1.000000E+00	    1.640002E-03	    1.640000E-03	    7.900000E+02	    1.291669E-08	    3.725886E-06	    2.278795E+05	    1.056783E+05	    1.000000E+00	    2.699609E-05	    5.099754E+01	
   -2.762019E-02	    6.091530E-03	    1.066600E-02	   -1.000000E+00	    1.640005E-03	    1.640000E-03	    7.900000E+02	    3.059037E-08	    5.940666E-06	    1.534184E+05	    1.047220E+05	    1.000000E+00	    3.290146E-05	    5.261500E+01	
   -2.778454E-02	    7.352906E-03	    1.281318E-02	   -1.000000E+00	    1.640011E-03	    1.640000E-03	    7.900000E+02	    7.002956E-08	    9.331726E-06	    1.052707E+05	    1.036128E+05	    1.000000E+00	    3.971922E-05	    5.435722E+01	
   -2.790116E-02	    8.789261E-03	    1.525279E-02	   -1.000000E+00	    1.640023E-03	    1.640000E-03	    7.900000E+02	    1.551783E-07	    1.446795E-05	    7.365516E+04	    1.026179E+05	    1.000000E+00	    4.748477E-05	    5.637217E+01	
   -2.794368E-02	    1.040133E-02	    1.797993E-02	   -1.000000E+00	    1.640050E-03	    1.640000E-03	    7.900000E+02	    3.316816E-07	    2.207469E-05	    5.257754E+04	    1.016361E+05	    1.000000E+00	    5.620289E-05	    5.859203E+01	
   -2.788240E-02	    1.218257E-02	    2.097215E-02	   -1.000000E+00	    1.640102E-03	    1.640000E-03	    7.900000E+02	    6.804056E-07	    3.299917E-05	    3.831442E+04	    1.005434E+05	    1.000000E+00	    6.583903E-05	    6.089032E+01	
   -2.768610E-02	    1.411776E-02	    2.421401E-02	   -1.000000E+00	    1.640201E-03	    1.640000E-03	    7.900000E+02	    1.339937E-06	    4.837547E-05	    2.852120E+04	    9.942374E+04	    1.000000E+00	    7.631176E-05	    6.336027E+01	
   -2.732446E-02	    1.618217E-02	    2.770348E-02	   -1.000000E+00	    1.640380E-03	    1.640000E-03	    7.900000E+02	    2.531340E-06	    6.953681E-05	    2.170158E+04	    9.847872E+04	    1.000000E+00	    8.748814E-05	    6.612473E+01	
   -2.677117E-02	    1.834163E-02	    3.127780E-02	   -1.000000E+00	    1.640676E-03	    1.640000E-03	    7.900000E+02	    4.509265E-06	    9.639418E-05	    1.688777E+04	    9.686743E+04	    1.000000E+00	    9.918392E-05	    6.839112E+01	
   -2.600701E-02	    2.055373E-02	    3.496786E-02	   -1.000000E+00	    1.641152E-03	    1.640000E-03	    7.900000E+02	    7.682285E-06	    1.307519E-04	    1.344574E+04	    9.523667E+04	    1.000000E+00	    1.111699E-04	    7.088260E+01	
   -2.502274E-02	    2.277024E-02	    3.869057E-02	   -1.000000E+00	    1.641871E-03	    1.640000E-03	    7.900000E+02	    1.247491E-05	    1.729864E-04	    1.095473E+04	    9.347958E+04	    1.000000E+00	    1.231848E-04	    7.347125E+01	
   -2.382090E-02	    2.494058E-02	    4.237800E-02	   -1.000000E+00	    1.642893E-03	    1.640000E-03	    7.900000E+02	    1.928924E-05	    2.229732E-04	    9.131973E+03	    9.167135E+04	    1.000000E+00	    1.349546E-04	    7.612235E+01	
   -2.241632E-02	    2.701593E-02	    4.584334E-02	   -1.000000E+00	    1.644209E-03	    1.640000E-03	    7.900000E+02	    2.806268E-05	    2.765370E-04	    7.784867E+03	    8.951720E+04	    1.000000E+00	    1.462138E-04	    7.812626E+01	
   -2.083503E-02	    2.895310E-02	    4.907931E-02	   -1.000000E+00	    1.645826E-03	    1.640000E-03	    7.900000E+02	    3.883683E-05	    3.333556E-04	    6.780958E+03	    8.739861E+04	    1.000000E+00	    1.567275E-04	    7.992500E+01	
   -1.911177E-02	    3.071785E-02	    5.205510E-02	   -1.000000E+00	    1.647703E-03	    1.640000E-03	    7.900000E+02	    5.135574E-05	    3.918533E-04	    6.027839E+03	    8.547724E+04	    1.000000E+00	    1.663088E-04	    8.162347E+01	
   -1.728668E-02	    3.228679E-02	    5.472041E-02	   -1.000000E+00	    1.649749E-03	    1.640000E-03	    7.900000E+02	    6.499662E-05	    4.492342E-04	    5.460207E+03	    8.377608E+04	    1.000000E+00	    1.748298E-04	    8.313341E+01	
   -1.540160E-02	    3.364792E-02	    5.704739E-02	   -1.000000E+00	    1.651847E-03	    1.640000E-03	    7.900000E+02	    7.898289E-05	    5.030284E-04	    5.031374E+03	    8.231290E+04	    1.000000E+00	    1.822242E-04	    8.441903E+01	
   -1.349677E-02	    3.479989E-02	    5.902705E-02	   -1.000000E+00	    1.653879E-03	    1.640000E-03	    7.900000E+02	    9.252742E-05	    5.513633E-04	    4.707545E+03	    8.108825E+04	    1.000000E+00	    1.884840E-04	    8.547550E+01	
   -1.160826E-02	    3.575027E-02	    6.066702E-02	   -1.000000E+00	    1.655744E-03	    1.640000E-03	    7.900000E+02	    1.049614E-04	    5.930919E-04	    4.463952E+03	    8.008974E+04	    1.000000E+00	    1.936493E-04	    8.631819E+01	
   -9.766322E-03	    3.651327E-02	    6.198796E-02	   -1.000000E+00	    1.657372E-03	    1.640000E-03	    7.900000E+02	    1.158106E-04	    6.277545E-04	    4.282215E+03	    7.929716E+04	    1.000000E+00	    1.977969E-04	    8.697286E+01	
   -7.994695E-03	    3.710744E-02	    6.301924E-02	   -1.000000E+00	    1.658722E-03	    1.640000E-03	    7.900000E+02	    1.248145E-04	    6.554370E-04	    4.148519E+03	    7.868616E+04	    1.000000E+00	    2.010273E-04	    8.746803E+01	
   -6.310632E-03	    3.755359E-02	    6.379506E-02	   -1.000000E+00	    1.659786E-03	    1.640000E-03	    7.900000E+02	    1.319034E-04	    6.766063E-04	    4.052352E+03	    7.823116E+04	    1.000000E+00	    2.034531E-04	    8.783087E+01	
   -4.725471E-03	    3.787304E-02	    6.435125E-02	   -1.000000E+00	    1.660573E-03	    1.640000E-03	    7.900000E+02	    1.371551E-04	    6.919585E-04	    3.985613E+03	    7.790731E+04	    1.000000E+00	    2.051901E-04	    8.808557E+01	
   -3.245491E-03	    3.808638E-02	    6.472288E-02	   -1.000000E+00	    1.661112E-03	    1.640000E-03	    7.900000E+02	    1.407447E-04	    7.022970E-04	    3.941993E+03	    7.769169E+04	    1.000000E+00	    2.063502E-04	    8.825289E+01	
   -1.872890E-03	    3.821266E-02	    6.494271E-02	   -1.000000E+00	    1.661435E-03	    1.640000E-03	    7.900000E+02	    1.428997E-04	    7.084431E-04	    3.916525E+03	    7.756388E+04	    1.000000E+00	    2.070369E-04	    8.835027E+01	
   -6.067324E-04	    3.826891E-02	    6.504012E-02	   -1.000000E+00	    1.661580E-03	    1.640000E-03	    7.900000E+02	    1.438645E-04	    7.111756E-04	    3.905262E+03	    7.750595E+04	    1.000000E+00	    2.073428E-04	    8.839187E+01	
    6.067324E-04	    3.826891E-02	    6.504012E-02	   -1.000000E+00	    1.661580E-03	    1.640000E-03	    7.900000E+02	    1.438645E-04	    7.111756E-04	    3.905262E+03	    7.750595E+04	    1.000000E+00	    2.073428E-04	    8.839187E+01	