Title="Fields"
Variables="X""Y""Velocity""Phi""Effective Viscosity""Dynamic Viscosity""Density""Eddy Viscosity""K""Omega""S""F1SST""distance""GEN"
Zone I=52 J=52 F=POINT
   -2.610892E-02	    1.204767E-04	    0.000000E+00	    0.000000E+00	    1.000000E-03	    1.000000E-03	    1.000000E+03	    0.000000E+00	    0.000000E+00	    8.789034E+07	    0.000000E+00	    1.000000E+00	    0.000000E+00	    0.000000E+00	
   -2.612106E-02	    1.518502E-04	    0.000000E+00	    0.000000E+00	    1.000000E-03	    1.000000E-03	    1.000000E+03	    0.000000E+00	    0.000000E+00	    8.789034E+07	    0.000000E+00	    1.000000E+00	    0.000000E+00	    0.000000E+00	
   -2.615520E-02	    2.407350E-04	    0.000000E+00	    0.000000E+00	    1.000000E-03	    1.000000E-03	    1.000000E+03	    0.000000E+00	    0.000000E+00	    3.497083E+07	    0.000000E+00	    1.000000E+00	    0.000000E+00	    0.000000E+00	
   -2.620768E-02	    3.791561E-04	    0.000000E+00	    0.000000E+00	    1.000000E-03	    1.000000E-03	    1.000000E+03	    0.000000E+00	    0.000000E+00	    1.409834E+07	    0.000000E+00	    1.000000E+00	    0.000000E+00	    0.000000E+00	
   -2.628630E-02	    5.907885E-04	    0.000000E+00	    0.000000E+00	    1.000000E-03	    1.000000E-03	    1.000000E+03	    0.000000E+00	    0.000000E+00	    5.807237E+06	    0.000000E+00	    1.000000E+00	    0.000000E+00	    0.000000E+00	
   -2.640032E-02	    9.074076E-04	    0.000000E+00	    0.000000E+00	    1.000000E-03	    1.000000E-03	    1.000000E+03	    0.000000E+00	    0.000000E+00	    2.461917E+06	    0.000000E+00	    1.000000E+00	    0.000000E+00	    0.000000E+00	
   -2.655916E-02	    1.369739E-03	    0.000000E+00	    0.000000E+00	    1.000000E-03	    1.000000E-03	    1.000000E+03	    0.000000E+00	    0.000000E+00	    1.080606E+06	    0.000000E+00	    1.000000E+00	    0.000000E+00	    0.000000E+00	
   -2.676974E-02	    2.027435E-03	    0.000000E+00	    0.000000E+00	    1.000000E-03	    1.000000E-03	    1.000000E+03	    0.000000E+00	    0.000000E+00	    4.933351E+05	    0.000000E+00	    1.000000E+00	    0.000000E+00	    0.000000E+00	
   -2.703211E-02	    2.937714E-03	    0.000000E+00	    0.000000E+00	    1.000000E-03	    1.000000E-03	    1.000000E+03	    0.000000E+00	    0.000000E+00	    2.350419E+05	    0.000000E+00	    1.000000E+00	    0.000000E+00	    0.000000E+00	
   -2.733327E-02	    4.162106E-03	    0.000000E+00	    0.000000E+00	    1.000000E-03	    1.000000E-03	    1.000000E+03	    0.000000E+00	    0.000000E+00	    1.171420E+05	    0.000000E+00	    1.000000E+00	    0.000000E+00	    0.000000E+00	
   -2.764001E-02	    5.760527E-03	    0.000000E+00	    0.000000E+00	    1.000000E-03	    1.000000E-03	    1.000000E+03	    0.000000E+00	    0.000000E+00	    6.118553E+04	    0.000000E+00	    1.000000E+00	    0.000000E+00	    0.000000E+00	
   -2.789224E-02	    7.781842E-03	    0.000000E+00	    0.000000E+00	    1.000000E-03	    1.000000E-03	    1.000000E+03	    0.000000E+00	    0.000000E+00	    3.355257E+04	    0.000000E+00	    1.000000E+00	    0.000000E+00	    0.000000E+00	
   -2.800000E-02	    1.025050E-02	    0.000000E+00	    0.000000E+00	    1.000000E-03	    1.000000E-03	    1.000000E+03	    0.000000E+00	    0.000000E+00	    1.935757E+04	    0.000000E+00	    1.000000E+00	    0.000000E+00	    0.000000E+00	
   -2.784791E-02	    1.315043E-02	    0.000000E+00	    0.000000E+00	    1.000000E-03	    1.000000E-03	    1.000000E+03	    0.000000E+00	    0.000000E+00	    1.178035E+04	    0.000000E+00	    1.000000E+00	    0.000000E+00	    0.000000E+00	
   -2.731073E-02	    1.641048E-02	    0.000000E+00	    0.000000E+00	    1.000000E-03	    1.000000E-03	    1.000000E+03	    0.000000E+00	    0.000000E+00	    7.584936E+03	    0.000000E+00	    1.000000E+00	    0.000000E+00	    0.000000E+00	
   -2.627994E-02	    1.989855E-02	    0.000000E+00	    0.000000E+00	    1.000000E-03	    1.000000E-03	    1.000000E+03	    0.000000E+00	    0.000000E+00	    5.182282E+03	    0.000000E+00	    1.000000E+00	    0.000000E+00	    0.000000E+00	
   -2.469526E-02	    2.343238E-02	    0.000000E+00	    0.000000E+00	    1.000000E-03	    1.000000E-03	    1.000000E+03	    0.000000E+00	    0.000000E+00	    3.764359E+03	    0.000000E+00	    1.000000E+00	    0.000000E+00	    0.000000E+00	
   -2.256857E-02	    2.680887E-02	    0.000000E+00	    0.000000E+00	    1.000000E-03	    1.000000E-03	    1.000000E+03	    0.000000E+00	    0.000000E+00	    2.905123E+03	    0.000000E+00	    1.000000E+00	    0.000000E+00	    0.000000E+00	
   -1.998802E-02	    2.984415E-02	    0.000000E+00	    0.000000E+00	    1.000000E-03	    1.000000E-03	    1.000000E+03	    0.000000E+00	    0.000000E+00	    2.372512E+03	    0.000000E+00	    1.000000E+00	    0.000000E+00	    0.000000E+00	
   -1.709863E-02	    3.240891E-02	    0.000000E+00	    0.000000E+00	    1.000000E-03	    1.000000E-03	    1.000000E+03	    0.000000E+00	    0.000000E+00	    2.036697E+03	    0.000000E+00	    1.000000E+00	    0.000000E+00	    0.000000E+00	
   -1.406812E-02	    3.444527E-02	    0.000000E+00	    0.000000E+00	    1.000000E-03	    1.000000E-03	    1.000000E+03	    0.000000E+00	    0.000000E+00	    1.821987E+03	    0.000000E+00	    1.000000E+00	    0.000000E+00	    0.000000E+00	
   -1.105289E-02	    3.596214E-02	    0.000000E+00	    0.000000E+00	    1.000000E-03	    1.000000E-03	    1.000000E+03	    0.000000E+00	    0.000000E+00	    1.685677E+03	    0.000000E+00	    1.000000E+00	    0.000000E+00	    0.000000E+00	
   -8.175435E-03	    3.701590E-02	    0.000000E+00	    0.000000E+00	    1.000000E-03	    1.000000E-03	    1.000000E+03	    0.000000E+00	    0.000000E+00	    1.600880E+03	    0.000000E+00	    1.000000E+00	    0.000000E+00	    0.000000E+00	
   -5.516520E-03	    3.768721E-02	    0.000000E+00	    0.000000E+00	    1.000000E-03	    1.000000E-03	    1.000000E+03	    0.000000E+00	    0.000000E+00	    1.550586E+03	    0.000000E+00	    1.000000E+00	    0.000000E+00	    0.000000E+00	
   -3.118445E-03	    3.806182E-02	    0.000000E+00	    0.000000E+00	    1.000000E-03	    1.000000E-03	    1.000000E+03	    0.000000E+00	    0.000000E+00	    1.523684E+03	    0.000000E+00	    1.000000E+00	    0.000000E+00	    0.000000E+00	
   -9.938058E-04	    3.821837E-02	    0.000000E+00	    0.000000E+00	    1.000000E-03	    1.000000E-03	    1.000000E+03	    0.000000E+00	    0.000000E+00	    1.512672E+03	    0.000000E+00	    1.000000E+00	    0.000000E+00	    0.000000E+00	
    9.938058E-04	    3.821837E-02	    0.000000E+00	    0.000000E+00	    1.000000E-03	    1.000000E-03	    1.000000E+03	    0.000000E+00	    0.000000E+00	    1.512672E+03	    0.000000E+00	    1.000000E+00	    0.000000E+00	    0.000000E+00	
    3.118445E-03	    3.806182E-02	    0.000000E+00	    0.000000E+00	    1.000000E-03	    1.000000E-03	    1.000000E+03	    0.000000E+00	    0.000000E+00	    1.523684E+03	    0.000000E+00	    1.000000E+00	    0.000000E+00	    0.000000E+00	
    5.516520E-03	    3.768721E-02	    0.000000E+00	    0.000000E+00	    1.000000E-03	    1.000000E-03	    1.000000E+03	    0.000000E+00	    0.000000E+00	    1.550586E+03	    0.000000E+00	    1.000000E+00	    0.000000E+00	    0.000000E+00	
    8.175435E-03	    3.701590E-02	    0.000000E+00	    0.000000E+00	    1.000000E-03	    1.000000E-03	    1.000000E+03	    0.000000E+00	    0.000000E+00	    1.600880E+03	    0.000000E+00	    1.000000E+00	    0.000000E+00	    0.000000E+00	
    1.105289E-02	    3.596214E-02	    0.000000E+00	    0.000000E+00	    1.000000E-03	    1.000000E-03	    1.000000E+03	    0.000000E+00	    0.000000E+00	    1.685677E+03	    0.000000E+00	    1.000000E+00	    0.000000E+00	    0.000000E+00	
    1.406812E-02	    3.444527E-02	    0.000000E+00	    0.000000E+00	    1.000000E-03	    1.000000E-03	    1.000000E+03	    0.000000E+00	    0.000000E+00	    1.821987E+03	    0.000000E+00	    1.000000E+00	    0.000000E+00	    0.000000E+00	
    1.709863E-02	    3.240891E-02	    0.000000E+00	    0.000000E+00	    1.000000E-03	    1.000000E-03	    1.000000E+03	    0.000000E+00	    0.000000E+00	    2.036697E+03	    0.000000E+00	    1.000000E+00	    0.000000E+00	    0.000000E+00	
    1.998802E-02	    2.984415E-02	    0.000000E+00	    0.000000E+00	    1.000000E-03	    1.000000E-03	    1.000000E+03	    0.000000E+00	    0.000000E+00	    2.372512E+03	    0.000000E+00	    1.000000E+00	    0.000000E+00	    0.000000E+00	
    2.256857E-02	    2.680887E-02	    0.000000E+00	    0.000000E+00	    1.000000E-03	    1.000000E-03	    1.000000E+03	    0.000000E+00	    0.000000E+00	    2.905123E+03	    0.000000E+00	    1.000000E+00	    0.000000E+00	    0.000000E+00	
    2.469526E-02	    2.343238E-02	    0.000000E+00	    0.000000E+00	    1.000000E-03	    1.000000E-03	    1.000000E+03	    0.000000E+00	    0.000000E+00	    3.764359E+03	    0.000000E+00	    1.000000E+00	    0.000000E+00	    0.000000E+00	
    2.627994E-02	    1.989855E-02	    0.000000E+00	    0.000000E+00	    1.000000E-03	    1.000000E-03	    1.000000E+03	    0.000000E+00	    0.000000E+00	    5.182282E+03	    0.000000E+00	    1.000000E+00	    0.000000E+00	    0.000000E+00	
    2.731073E-02	    1.641048E-02	    0.000000E+00	    0.000000E+00	    1.000000E-03	    1.000000E-03	    1.000000E+03	    0.000000E+00	    0.000000E+00	    7.584936E+03	    0.000000E+00	    1.000000E+00	    0.000000E+00	    0.000000E+00	
    2.784791E-02	    1.315043E-02	    0.000000E+00	    0.000000E+00	    1.000000E-03	    1.000000E-03	    1.000000E+03	    0.000000E+00	    0.000000E+00	    1.178035E+04	    0.000000E+00	    1.000000E+00	    0.000000E+00	    0.000000E+00	
    2.800000E-02	    1.025050E-02	    0.000000E+00	    0.000000E+00	    1.000000E-03	    1.000000E-03	    1.000000E+03	    0.000000E+00	    0.000000E+00	    1.935757E+04	    0.000000E+00	    1.000000E+00	    0.000000E+00	    0.000000E+00	
    2.789224E-02	    7.781842E-03	    0.000000E+00	    0.000000E+00	    1.000000E-03	    1.000000E-03	    1.000000E+03	    0.000000E+00	    0.000000E+00	    3.355257E+04	    0.000000E+00	    1.000000E+00	    0.000000E+00	    0.000000E+00	
    2.764001E-02	    5.760527E-03	    0.000000E+00	    0.000000E+00	    1.000000E-03	    1.000000E-03	    1.000000E+03	    0.000000E+00	    0.000000E+00	    6.118553E+04	    0.000000E+00	    1.000000E+00	    0.000000E+00	    0.000000E+00	
    2.733327E-02	    4.162106E-03	    0.000000E+00	    0.000000E+00	    1.000000E-03	    1.000000E-03	    1.000000E+03	    0.000000E+00	    0.000000E+00	    1.171420E+05	    0.000000E+00	    1.000000E+00	    0.000000E+00	    0.000000E+00	
    2.703211E-02	    2.937714E-03	    0.000000E+00	    0.000000E+00	    1.000000E-03	    1.000000E-03	    1.000000E+03	    0.000000E+00	    0.000000E+00	    2.350419E+05	    0.000000E+00	    1.000000E+00	    0.000000E+00	    0.000000E+00	
    2.676974E-02	    2.027435E-03	    0.000000E+00	    0.000000E+00	    1.000000E-03	    1.000000E-03	    1.000000E+03	    0.000000E+00	    0.000000E+00	    4.933351E+05	    0.000000E+00	    1.000000E+00	    0.000000E+00	    0.000000E+00	
    2.655916E-02	    1.369739E-03	    0.000000E+00	    0.000000E+00	    1.000000E-03	    1.000000E-03	    1.000000E+03	    0.000000E+00	    0.000000E+00	    1.080606E+06	    0.000000E+00	    1.000000E+00	    0.000000E+00	    0.000000E+00	
    2.640032E-02	    9.074076E-04	    0.000000E+00	    0.000000E+00	    1.000000E-03	    1.000000E-03	    1.000000E+03	    0.000000E+00	    0.000000E+00	    2.461917E+06	    0.000000E+00	    1.000000E+00	    0.000000E+00	    0.000000E+00	
    2.628630E-02	    5.907885E-04	    0.000000E+00	    0.000000E+00	    1.000000E-03	    1.000000E-03	    1.000000E+03	    0.000000E+00	    0.000000E+00	    5.807237E+06	    0.000000E+00	    1.000000E+00	    0.000000E+00	    0.000000E+00	
    2.620768E-02	    3.791561E-04	    0.000000E+00	    0.000000E+00	    1.000000E-03	    1.000000E-03	    1.000000E+03	    0.000000E+00	    0.000000E+00	    1.409834E+07	    0.000000E+00	    1.000000E+00	    0.000000E+00	    0.000000E+00	
    2.615520E-02	    2.407350E-04	    0.000000E+00	    0.000000E+00	    1.000000E-03	    1.000000E-03	    1.000000E+03	    0.000000E+00	    0.000000E+00	    3.497083E+07	    0.000000E+00	    1.000000E+00	    0.000000E+00	    0.000000E+00	
    2.612106E-02	    1.518502E-04	    0.000000E+00	    0.000000E+00	    1.000000E-03	    1.000000E-03	    1.000000E+03	    0.000000E+00	    0.000000E+00	    8.789034E+07	    0.000000E+00	    1.000000E+00	    0.000000E+00	    0.000000E+00	
    2.610892E-02	    1.204767E-04	    0.000000E+00	    0.000000E+00	    1.000000E-03	    1.000000E-03	    1.000000E+03	    0.000000E+00	    0.000000E+00	    0.000000E+00	    0.000000E+00	    1.000000E+00	    0.000000E+00	    0.000000E+00	
   -2.610790E-02	    1.208664E-04	    0.000000E+00	    0.000000E+00	    1.000000E-03	    1.000000E-03	    1.000000E+03	    0.000000E+00	    0.000000E+00	    0.000000E+00	    0.000000E+00	    1.000000E+00	    0.000000E+00	    0.000000E+00	
   -2.611977E-02	    1.523399E-04	    4.283706E-04	   -1.000000E+00	    1.640000E-03	    1.640000E-03	    7.900000E+02	    1.233303E-13	    1.372094E-08	    8.789034E+07	    6.298382E+04	    1.000000E+00	    1.374620E-06	    5.817905E+01	
   -2.615316E-02	    2.415043E-04	    1.031211E-03	   -1.000000E+00	    1.640000E-03	    1.640000E-03	    7.900000E+02	    7.879313E-13	    3.487926E-08	    3.497083E+07	    1.450476E+05	    1.000000E+00	    2.179216E-06	    8.884866E+01	
   -2.620446E-02	    3.803507E-04	    1.824835E-03	   -1.000000E+00	    1.640000E-03	    1.640000E-03	    7.900000E+02	    6.143910E-12	    1.096442E-07	    1.409834E+07	    1.830879E+05	    1.000000E+00	    3.432175E-06	    1.123823E+02	
   -2.628127E-02	    5.926093E-04	    2.945393E-03	   -1.000000E+00	    1.640000E-03	    1.640000E-03	    7.900000E+02	    3.921180E-11	    2.882433E-07	    5.807237E+06	    1.964459E+05	    1.000000E+00	    5.347719E-06	    1.211452E+02	
   -2.639257E-02	    9.101109E-04	    4.550173E-03	   -1.000000E+00	    1.640000E-03	    1.640000E-03	    7.900000E+02	    2.240903E-10	    6.983438E-07	    2.461917E+06	    1.987182E+05	    1.000000E+00	    8.213281E-06	    1.234951E+02	
   -2.654739E-02	    1.373614E-03	    6.804465E-03	   -1.000000E+00	    1.640000E-03	    1.640000E-03	    7.900000E+02	    1.168048E-09	    1.597721E-06	    1.080606E+06	    1.950040E+05	    1.000000E+00	    1.239709E-05	    1.226099E+02	
   -2.675218E-02	    2.032738E-03	    9.922077E-03	   -1.000000E+00	    1.640001E-03	    1.640000E-03	    7.900000E+02	    5.626208E-09	    3.513425E-06	    4.933351E+05	    1.892161E+05	    1.000000E+00	    1.834774E-05	    1.210385E+02	
   -2.700641E-02	    2.944531E-03	    1.415381E-02	   -1.000000E+00	    1.640005E-03	    1.640000E-03	    7.900000E+02	    2.520272E-08	    7.498347E-06	    2.350419E+05	    1.833363E+05	    1.000000E+00	    2.658160E-05	    1.201751E+02	
   -2.729648E-02	    4.170112E-03	    1.973597E-02	   -1.000000E+00	    1.640019E-03	    1.640000E-03	    7.900000E+02	    1.047536E-07	    1.553297E-05	    1.171420E+05	    1.775037E+05	    1.000000E+00	    3.765293E-05	    1.202012E+02	
   -2.758854E-02	    5.768625E-03	    2.688394E-02	   -1.000000E+00	    1.640073E-03	    1.640000E-03	    7.900000E+02	    4.029093E-07	    3.120534E-05	    6.118553E+04	    1.717830E+05	    1.000000E+00	    5.209975E-05	    1.212151E+02	
   -2.782213E-02	    7.787693E-03	    3.575083E-02	   -1.000000E+00	    1.640257E-03	    1.640000E-03	    7.900000E+02	    1.429198E-06	    6.070034E-05	    3.355257E+04	    1.660728E+05	    1.000000E+00	    7.035808E-05	    1.232748E+02	
   -2.790736E-02	    1.025003E-02	    4.627148E-02	   -1.000000E+00	    1.640827E-03	    1.640000E-03	    7.900000E+02	    4.594097E-06	    1.125703E-04	    1.935757E+04	    1.592313E+05	    1.000000E+00	    9.264103E-05	    1.253254E+02	
   -2.772982E-02	    1.313754E-02	    5.858447E-02	   -1.000000E+00	    1.642426E-03	    1.640000E-03	    7.900000E+02	    1.347653E-05	    2.009598E-04	    1.178035E+04	    1.523181E+05	    1.000000E+00	    1.187942E-04	    1.289339E+02	
   -2.716636E-02	    1.637717E-02	    7.195162E-02	   -1.000000E+00	    1.646262E-03	    1.640000E-03	    7.900000E+02	    3.478975E-05	    3.340229E-04	    7.584936E+03	    1.425334E+05	    1.000000E+00	    1.481659E-04	    1.312359E+02	
   -2.611168E-02	    1.983587E-02	    8.605293E-02	   -1.000000E+00	    1.654389E-03	    1.640000E-03	    7.900000E+02	    7.993981E-05	    5.243932E-04	    5.182282E+03	    1.318096E+05	    1.000000E+00	    1.795580E-04	    1.339077E+02	
   -2.450928E-02	    2.333204E-02	    1.004714E-01	   -1.000000E+00	    1.669014E-03	    1.640000E-03	    7.900000E+02	    1.611902E-04	    7.680733E-04	    3.764359E+03	    1.221870E+05	    1.000000E+00	    2.113260E-04	    1.366025E+02	
   -2.237432E-02	    2.666514E-02	    1.142876E-01	   -1.000000E+00	    1.690554E-03	    1.640000E-03	    7.900000E+02	    2.808530E-04	    1.032801E-03	    2.905123E+03	    1.142071E+05	    1.000000E+00	    2.416459E-04	    1.378063E+02	
   -1.979669E-02	    2.965525E-02	    1.266246E-01	   -1.000000E+00	    1.716792E-03	    1.640000E-03	    7.900000E+02	    4.266217E-04	    1.281222E-03	    2.372512E+03	    1.079280E+05	    1.000000E+00	    2.688739E-04	    1.373579E+02	
   -1.692103E-02	    3.217730E-02	    1.369838E-01	   -1.000000E+00	    1.744077E-03	    1.640000E-03	    7.900000E+02	    5.782036E-04	    1.490665E-03	    2.036697E+03	    1.032713E+05	    1.000000E+00	    2.918605E-04	    1.360283E+02	
   -1.391293E-02	    3.417680E-02	    1.446842E-01	   -1.000000E+00	    1.767500E-03	    1.640000E-03	    7.900000E+02	    7.083354E-04	    1.633643E-03	    1.821987E+03	    9.981868E+04	    1.000000E+00	    3.100979E-04	    1.332363E+02	
   -1.092565E-02	    3.566453E-02	    1.503667E-01	   -1.000000E+00	    1.786454E-03	    1.640000E-03	    7.900000E+02	    8.136343E-04	    1.736107E-03	    1.685677E+03	    9.744828E+04	    1.000000E+00	    3.236751E-04	    1.310213E+02	
   -8.078594E-03	    3.669719E-02	    1.542756E-01	   -1.000000E+00	    1.800323E-03	    1.640000E-03	    7.900000E+02	    8.906844E-04	    1.804910E-03	    1.600880E+03	    9.587042E+04	    1.000000E+00	    3.331033E-04	    1.294159E+02	
   -5.450004E-03	    3.735469E-02	    1.567398E-01	   -1.000000E+00	    1.809423E-03	    1.640000E-03	    7.900000E+02	    9.412393E-04	    1.847434E-03	    1.550586E+03	    9.488291E+04	    1.000000E+00	    3.391079E-04	    1.283538E+02	
   -3.080475E-03	    3.772147E-02	    1.581025E-01	   -1.000000E+00	    1.814580E-03	    1.640000E-03	    7.900000E+02	    9.698910E-04	    1.870642E-03	    1.523684E+03	    9.433380E+04	    1.000000E+00	    3.424581E-04	    1.277438E+02	
   -9.816561E-04	    3.787473E-02	    1.586650E-01	   -1.000000E+00	    1.816746E-03	    1.640000E-03	    7.900000E+02	    9.819196E-04	    1.880155E-03	    1.512672E+03	    9.409993E+04	    1.000000E+00	    3.438581E-04	    1.274794E+02	
    9.816561E-04	    3.787473E-02	    1.586650E-01	   -1.000000E+00	    1.816746E-03	    1.640000E-03	    7.900000E+02	    9.819196E-04	    1.880155E-03	    1.512672E+03	    9.409993E+04	    1.000000E+00	    3.438581E-04	    1.274794E+02	
    3.080475E-03	    3.772147E-02	    1.581025E-01	   -1.000000E+00	    1.814580E-03	    1.640000E-03	    7.900000E+02	    9.698910E-04	    1.870642E-03	    1.523684E+03	    9.433380E+04	    1.000000E+00	    3.424581E-04	    1.277438E+02	
    5.450004E-03	    3.735469E-02	    1.567398E-01	   -1.000000E+00	    1.809423E-03	    1.640000E-03	    7.900000E+02	    9.412393E-04	    1.847434E-03	    1.550586E+03	    9.488291E+04	    1.000000E+00	    3.391079E-04	    1.283538E+02	
    8.078594E-03	    3.669719E-02	    1.542756E-01	   -1.000000E+00	    1.800323E-03	    1.640000E-03	    7.900000E+02	    8.906844E-04	    1.804910E-03	    1.600880E+03	    9.587042E+04	    1.000000E+00	    3.331033E-04	    1.294159E+02	
    1.092565E-02	    3.566453E-02	    1.503667E-01	   -1.000000E+00	    1.786454E-03	    1.640000E-03	    7.900000E+02	    8.136343E-04	    1.736107E-03	    1.685677E+03	    9.744828E+04	    1.000000E+00	    3.236751E-04	    1.310213E+02	
    1.391293E-02	    3.417680E-02	    1.446842E-01	   -1.000000E+00	    1.767500E-03	    1.640000E-03	    7.900000E+02	    7.083354E-04	    1.633643E-03	    1.821987E+03	    9.981868E+04	    1.000000E+00	    3.100979E-04	    1.332363E+02	
    1.692103E-02	    3.217730E-02	    1.369838E-01	   -1.000000E+00	    1.744077E-03	    1.640000E-03	    7.900000E+02	    5.782036E-04	    1.490665E-03	    2.036697E+03	    1.032713E+05	    1.000000E+00	    2.918605E-04	    1.360283E+02	
    1.979669E-02	    2.965525E-02	    1.266246E-01	   -1.000000E+00	    1.716792E-03	    1.640000E-03	    7.900000E+02	    4.266217E-04	    1.281222E-03	    2.372512E+03	    1.079280E+05	    1.000000E+00	    2.688739E-04	    1.373579E+02	
    2.237432E-02	    2.666514E-02	    1.142876E-01	   -1.000000E+00	    1.690554E-03	    1.640000E-03	    7.900000E+02	    2.808530E-04	    1.032801E-03	    2.905123E+03	    1.142071E+05	    1.000000E+00	    2.416459E-04	    1.378063E+02	
    2.450928E-02	    2.333204E-02	    1.004714E-01	   -1.000000E+00	    1.669014E-03	    1.640000E-03	    7.900000E+02	    1.611902E-04	    7.680733E-04	    3.764359E+03	    1.221870E+05	    1.000000E+00	    2.113260E-04	    1.366025E+02	
    2.611168E-02	    1.983587E-02	    8.605293E-02	   -1.000000E+00	    1.654389E-03	    1.640000E-03	    7.900000E+02	    7.993981E-05	    5.243932E-04	    5.182282E+03	    1.318096E+05	    1.000000E+00	    1.795580E-04	    1.339077E+02	
    2.716636E-02	    1.637717E-02	    7.195162E-02	   -1.000000E+00	    1.646262E-03	    1.640000E-03	    7.900000E+02	    3.478975E-05	    3.340229E-04	    7.584936E+03	    1.425334E+05	    1.000000E+00	    1.481659E-04	    1.312359E+02	
    2.772982E-02	    1.313754E-02	    5.858447E-02	   -1.000000E+00	    1.642426E-03	    1.640000E-03	    7.900000E+02	    1.347653E-05	    2.009598E-04	    1.178035E+04	    1.523181E+05	    1.000000E+00	    1.187942E-04	    1.289339E+02	
    2.790736E-02	    1.025003E-02	    4.627148E-02	   -1.000000E+00	    1.640827E-03	    1.640000E-03	    7.900000E+02	    4.594097E-06	    1.125703E-04	    1.935757E+04	    1.592313E+05	    1.000000E+00	    9.264103E-05	    1.253254E+02	
    2.782213E-02	    7.787693E-03	    3.575083E-02	   -1.000000E+00	    1.640257E-03	    1.640000E-03	    7.900000E+02	    1.429198E-06	    6.070034E-05	    3.355257E+04	    1.660728E+05	    1.000000E+00	    7.035808E-05	    1.232748E+02	
    2.758854E-02	    5.768625E-03	    2.688394E-02	   -1.000000E+00	    1.640073E-03	    1.640000E-03	    7.900000E+02	    4.029093E-07	    3.120534E-05	    6.118553E+04	    1.717830E+05	    1.000000E+00	    5.209975E-05	    1.212151E+02	
    2.729648E-02	    4.170112E-03	    1.973597E-02	   -1.000000E+00	    1.640019E-03	    1.640000E-03	    7.900000E+02	    1.047536E-07	    1.553297E-05	    1.171420E+05	    1.775037E+05	    1.000000E+00	    3.765293E-05	    1.202012E+02	
    2.700641E-02	    2.944531E-03	    1.415381E-02	   -1.000000E+00	    1.640005E-03	    1.640000E-03	    7.900000E+02	    2.520272E-08	    7.498347E-06	    2.350419E+05	    1.833363E+05	    1.000000E+00	    2.658160E-05	    1.201751E+02	
    2.675218E-02	    2.032738E-03	    9.922077E-03	   -1.000000E+00	    1.640001E-03	    1.640000E-03	    7.900000E+02	    5.626208E-09	    3.513425E-06	    4.933351E+05	    1.892161E+05	    1.000000E+00	    1.834774E-05	    1.210385E+02	
    2.654739E-02	    1.373614E-03	    6.804465E-03	   -1.000000E+00	    1.640000E-03	    1.640000E-03	    7.900000E+02	    1.168048E-09	    1.597721E-06	    1.080606E+06	    1.950040E+05	    1.000000E+00	    1.239709E-05	    1.226099E+02	
    2.639257E-02	    9.101109E-04	    4.550173E-03	   -1.000000E+00	    1.640000E-03	    1.640000E-03	    7.900000E+02	    2.240903E-10	    6.983438E-07	    2.461917E+06	    1.987182E+05	    1.000000E+00	    8.213281E-06	    1.234951E+02	
    2.628127E-02	    5.926093E-04	    2.945393E-03	   -1.000000E+00	    1.640000E-03	    1.640000E-03	    7.900000E+02	    3.921180E-11	    2.882433E-07	    5.807237E+06	    1.964459E+05	    1.000000E+00	    5.347719E-06	    1.211452E+02	
    2.620446E-02	    3.803507E-04	    1.824835E-03	   -1.000000E+00	    1.640000E-03	    1.640000E-03	    7.900000E+02	    6.143910E-12	    1.096442E-07	    1.409834E+07	    1.830879E+05	    1.000000E+00	    3.432175E-06	    1.123823E+02	
    2.615316E-02	    2.415043E-04	    1.031211E-03	   -1.000000E+00	    1.640000E-03	    1.640000E-03	    7.900000E+02	    7.879313E-13	    3.487926E-08	    3.497083E+07	    1.450476E+05	    1.000000E+00	    2.179216E-06	    8.884866E+01	
    2.611977E-02	    1.523399E-04	    4.283706E-04	   -1.000000E+00	    1.640000E-03	    1.640000E-03	    7.900000E+02	    1.233303E-13	    1.372094E-08	    8.789034E+07	    6.298382E+04	    1.000000E+00	    1.374620E-06	    5.817905E+01	
    2.610790E-02	    1.208664E-04	    0.000000E+00	    0.000000E+00	    1.000000E-03	    1.000000E-03	    1.000000E+03	    0.000000E+00	    0.000000E+00	    1.468158E+05	    0.000000E+00	    1.000000E+00	    0.000000E+00	    0.000000E+00	
   -2.610553E-02	    1.217353E-04	    0.000000E+00	    0.000000E+00	    1.000000E-03	    1.000000E-03	    1.000000E+03	    0.000000E+00	    0.000000E+00	    1.468158E+05	    0.000000E+00	    1.000000E+00	    0.000000E+00	    0.000000E+00	
   -2.611678E-02	    1.534313E-04	    1.032567E-03	   -1.000000E+00	    1.640000E-03	    1.640000E-03	    7.900000E+02	    8.646028E-10	    1.606802E-07	    1.468158E+05	    3.658642E+04	    1.000000E+00	    4.555598E-06	    8.016526E-01	
   -2.614842E-02	    2.432182E-04	    2.485657E-03	   -1.000000E+00	    1.640000E-03	    1.640000E-03	    7.900000E+02	    1.025558E-12	    6.327094E-09	    4.873838E+06	    8.331002E+04	    8.170297E-03	    7.221850E-06	    8.543928E-08	
   -2.619698E-02	    3.830101E-04	    4.398272E-03	   -1.000000E+00	    1.640000E-03	    1.640000E-03	    7.900000E+02	    1.045839E-11	    2.715984E-08	    2.051585E+06	    1.050559E+05	    1.000000E+00	    1.137352E-05	    1.098715E-06	
   -2.626958E-02	    5.966577E-04	    7.098112E-03	   -1.000000E+00	    1.640000E-03	    1.640000E-03	    7.900000E+02	    1.082660E-10	    1.158350E-07	    8.452297E+05	    1.126632E+05	    1.000000E+00	    1.771983E-05	    1.219760E-05	
   -2.637454E-02	    9.161099E-04	    1.096317E-02	   -1.000000E+00	    1.640000E-03	    1.640000E-03	    7.900000E+02	    1.010372E-09	    4.584007E-07	    3.584191E+05	    1.139059E+05	    1.000000E+00	    2.721171E-05	    1.150874E-04	
   -2.652003E-02	    1.382188E-03	    1.638931E-02	   -1.000000E+00	    1.640001E-03	    1.640000E-03	    7.900000E+02	    8.323436E-09	    1.658151E-06	    1.573796E+05	    1.116888E+05	    1.000000E+00	    4.106608E-05	    9.296344E-04	
   -2.671140E-02	    2.044414E-03	    2.388697E-02	   -1.000000E+00	    1.640011E-03	    1.640000E-03	    7.900000E+02	    6.149488E-08	    5.595794E-06	    7.188692E+04	    1.082418E+05	    1.000000E+00	    6.076293E-05	    6.656319E-03	
   -2.694682E-02	    2.959421E-03	    3.405151E-02	   -1.000000E+00	    1.640073E-03	    1.640000E-03	    7.900000E+02	    4.082947E-07	    1.771260E-05	    3.427170E+04	    1.046452E+05	    1.000000E+00	    8.800128E-05	    4.272608E-02	
   -2.721126E-02	    4.187354E-03	    4.743483E-02	   -1.000000E+00	    1.640434E-03	    1.640000E-03	    7.900000E+02	    2.409666E-06	    5.212780E-05	    1.708990E+04	    1.007132E+05	    1.000000E+00	    1.245969E-04	    2.426851E-01	
   -2.746953E-02	    5.785554E-03	    6.451728E-02	   -1.000000E+00	    1.642263E-03	    1.640000E-03	    7.900000E+02	    1.257093E-05	    1.419843E-04	    8.922771E+03	    9.550195E+04	    1.000000E+00	    1.722996E-04	    1.200549E+00	
   -2.766035E-02	    7.798772E-03	    8.555287E-02	   -1.000000E+00	    1.650393E-03	    1.640000E-03	    7.900000E+02	    5.773636E-05	    3.566992E-04	    4.880675E+03	    8.707922E+04	    1.000000E+00	    2.325065E-04	    5.027638E+00	
   -2.769417E-02	    1.024578E-02	    1.100013E-01	   -1.000000E+00	    1.680076E-03	    1.640000E-03	    7.900000E+02	    2.226450E-04	    7.923289E-04	    2.811380E+03	    7.474039E+04	    1.000000E+00	    3.058621E-04	    1.664058E+01	
   -2.745890E-02	    1.310389E-02	    1.371332E-01	   -1.000000E+00	    1.767020E-03	    1.640000E-03	    7.900000E+02	    7.056688E-04	    1.544964E-03	    1.729595E+03	    6.127948E+04	    1.000000E+00	    3.917878E-04	    4.324302E+01	
   -2.683629E-02	    1.629596E-02	    1.636522E-01	   -1.000000E+00	    1.947168E-03	    1.640000E-03	    7.900000E+02	    1.706486E-03	    2.498004E-03	    1.156425E+03	    4.903973E+04	    1.000000E+00	    4.880691E-04	    8.368561E+01	
   -2.572841E-02	    1.968699E-02	    1.876568E-01	   -1.000000E+00	    2.240742E-03	    1.640000E-03	    7.900000E+02	    3.337454E-03	    3.551939E-03	    8.407702E+02	    3.846939E+04	    1.000000E+00	    5.907193E-04	    1.283898E+02	
   -2.408721E-02	    2.309717E-02	    2.085591E-01	   -1.000000E+00	    2.627926E-03	    1.640000E-03	    7.900000E+02	    5.488478E-03	    4.557478E-03	    6.559937E+02	    3.002703E+04	    1.000000E+00	    6.943339E-04	    1.648027E+02	
   -2.193506E-02	    2.633193E-02	    2.261341E-01	   -1.000000E+00	    3.053273E-03	    1.640000E-03	    7.900000E+02	    7.851518E-03	    5.376054E-03	    5.409250E+02	    2.384170E+04	    1.000000E+00	    7.929785E-04	    1.871935E+02	
   -1.936540E-02	    2.922035E-02	    2.404556E-01	   -1.000000E+00	    3.461783E-03	    1.640000E-03	    7.900000E+02	    1.012102E-02	    5.973699E-03	    4.662793E+02	    1.955111E+04	    1.000000E+00	    8.813596E-04	    1.978772E+02	
   -1.652178E-02	    3.164677E-02	    2.518191E-01	   -1.000000E+00	    3.817924E-03	    1.640000E-03	    7.900000E+02	    1.209958E-02	    6.386620E-03	    4.169923E+02	    1.667340E+04	    1.000000E+00	    9.558235E-04	    2.017411E+02	