Title="Fields"
Variables="X""Y""Velocity""Phi""Effective Viscosity""Dynamic Viscosity""Density""Eddy Viscosity""K""Omega""S""F1SST""distance""GEN"
Zone I=52 J=52 F=POINT
   -1.177484E-02	    5.664026E-05	    0.000000E+00	    0.000000E+00	    1.000000E-03	    1.000000E-03	    1.000000E+03	    0.000000E+00	    0.000000E+00	    8.954200E+08	    0.000000E+00	    1.000000E+00	    0.000000E+00	    0.000000E+00	
   -1.177109E-02	    7.133413E-05	    0.000000E+00	    0.000000E+00	    1.000000E-03	    1.000000E-03	    1.000000E+03	    0.000000E+00	    0.000000E+00	    8.954200E+08	    0.000000E+00	    1.000000E+00	    0.000000E+00	    0.000000E+00	
   -1.176040E-02	    1.128390E-04	    0.000000E+00	    0.000000E+00	    1.000000E-03	    1.000000E-03	    1.000000E+03	    0.000000E+00	    0.000000E+00	    3.578589E+08	    0.000000E+00	    1.000000E+00	    0.000000E+00	    0.000000E+00	
   -1.174353E-02	    1.771104E-04	    0.000000E+00	    0.000000E+00	    1.000000E-03	    1.000000E-03	    1.000000E+03	    0.000000E+00	    0.000000E+00	    1.452632E+08	    0.000000E+00	    1.000000E+00	    0.000000E+00	    0.000000E+00	
   -1.171724E-02	    2.745264E-04	    0.000000E+00	    0.000000E+00	    1.000000E-03	    1.000000E-03	    1.000000E+03	    0.000000E+00	    0.000000E+00	    6.046392E+07	    0.000000E+00	    1.000000E+00	    0.000000E+00	    0.000000E+00	
   -1.167683E-02	    4.183832E-04	    0.000000E+00	    0.000000E+00	    1.000000E-03	    1.000000E-03	    1.000000E+03	    0.000000E+00	    0.000000E+00	    2.603433E+07	    0.000000E+00	    1.000000E+00	    0.000000E+00	    0.000000E+00	
   -1.161559E-02	    6.244832E-04	    0.000000E+00	    0.000000E+00	    1.000000E-03	    1.000000E-03	    1.000000E+03	    0.000000E+00	    0.000000E+00	    1.168683E+07	    0.000000E+00	    1.000000E+00	    0.000000E+00	    0.000000E+00	
   -1.152417E-02	    9.098472E-04	    0.000000E+00	    0.000000E+00	    1.000000E-03	    1.000000E-03	    1.000000E+03	    0.000000E+00	    0.000000E+00	    5.506326E+06	    0.000000E+00	    1.000000E+00	    0.000000E+00	    0.000000E+00	
   -1.139001E-02	    1.290357E-03	    0.000000E+00	    0.000000E+00	    1.000000E-03	    1.000000E-03	    1.000000E+03	    0.000000E+00	    0.000000E+00	    2.738163E+06	    0.000000E+00	    1.000000E+00	    0.000000E+00	    0.000000E+00	
   -1.119711E-02	    1.777393E-03	    0.000000E+00	    0.000000E+00	    1.000000E-03	    1.000000E-03	    1.000000E+03	    0.000000E+00	    0.000000E+00	    1.443495E+06	    0.000000E+00	    1.000000E+00	    0.000000E+00	    0.000000E+00	
   -1.092667E-02	    2.373929E-03	    0.000000E+00	    0.000000E+00	    1.000000E-03	    1.000000E-03	    1.000000E+03	    0.000000E+00	    0.000000E+00	    8.094178E+05	    0.000000E+00	    1.000000E+00	    0.000000E+00	    0.000000E+00	
   -1.055926E-02	    3.071062E-03	    0.000000E+00	    0.000000E+00	    1.000000E-03	    1.000000E-03	    1.000000E+03	    0.000000E+00	    0.000000E+00	    4.838142E+05	    0.000000E+00	    1.000000E+00	    0.000000E+00	    0.000000E+00	
   -1.007859E-02	    3.846298E-03	    0.000000E+00	    0.000000E+00	    1.000000E-03	    1.000000E-03	    1.000000E+03	    0.000000E+00	    0.000000E+00	    3.085559E+05	    0.000000E+00	    1.000000E+00	    0.000000E+00	    0.000000E+00	
   -9.476235E-03	    4.664867E-03	    0.000000E+00	    0.000000E+00	    1.000000E-03	    1.000000E-03	    1.000000E+03	    0.000000E+00	    0.000000E+00	    2.098526E+05	    0.000000E+00	    1.000000E+00	    0.000000E+00	    0.000000E+00	
   -8.755706E-03	    5.484475E-03	    0.000000E+00	    0.000000E+00	    1.000000E-03	    1.000000E-03	    1.000000E+03	    0.000000E+00	    0.000000E+00	    1.518786E+05	    0.000000E+00	    1.000000E+00	    0.000000E+00	    0.000000E+00	
   -7.934051E-03	    6.262504E-03	    0.000000E+00	    0.000000E+00	    1.000000E-03	    1.000000E-03	    1.000000E+03	    0.000000E+00	    0.000000E+00	    1.165296E+05	    0.000000E+00	    1.000000E+00	    0.000000E+00	    0.000000E+00	
   -7.039824E-03	    6.963388E-03	    0.000000E+00	    0.000000E+00	    1.000000E-03	    1.000000E-03	    1.000000E+03	    0.000000E+00	    0.000000E+00	    9.428453E+04	    0.000000E+00	    1.000000E+00	    0.000000E+00	    0.000000E+00	
   -6.108090E-03	    7.563727E-03	    0.000000E+00	    0.000000E+00	    1.000000E-03	    1.000000E-03	    1.000000E+03	    0.000000E+00	    0.000000E+00	    7.993526E+04	    0.000000E+00	    1.000000E+00	    0.000000E+00	    0.000000E+00	
   -5.174350E-03	    8.053808E-03	    0.000000E+00	    0.000000E+00	    1.000000E-03	    1.000000E-03	    1.000000E+03	    0.000000E+00	    0.000000E+00	    7.052006E+04	    0.000000E+00	    1.000000E+00	    0.000000E+00	    0.000000E+00	
   -4.269433E-03	    8.435860E-03	    0.000000E+00	    0.000000E+00	    1.000000E-03	    1.000000E-03	    1.000000E+03	    0.000000E+00	    0.000000E+00	    6.428932E+04	    0.000000E+00	    1.000000E+00	    0.000000E+00	    0.000000E+00	
   -3.416558E-03	    8.720436E-03	    0.000000E+00	    0.000000E+00	    1.000000E-03	    1.000000E-03	    1.000000E+03	    0.000000E+00	    0.000000E+00	    6.017035E+04	    0.000000E+00	    1.000000E+00	    0.000000E+00	    0.000000E+00	
   -2.630634E-03	    8.922491E-03	    0.000000E+00	    0.000000E+00	    1.000000E-03	    1.000000E-03	    1.000000E+03	    0.000000E+00	    0.000000E+00	    5.748182E+04	    0.000000E+00	    1.000000E+00	    0.000000E+00	    0.000000E+00	
   -1.919141E-03	    9.058167E-03	    0.000000E+00	    0.000000E+00	    1.000000E-03	    1.000000E-03	    1.000000E+03	    0.000000E+00	    0.000000E+00	    5.577653E+04	    0.000000E+00	    1.000000E+00	    0.000000E+00	    0.000000E+00	
   -1.283774E-03	    9.142680E-03	    0.000000E+00	    0.000000E+00	    1.000000E-03	    1.000000E-03	    1.000000E+03	    0.000000E+00	    0.000000E+00	    5.475243E+04	    0.000000E+00	    1.000000E+00	    0.000000E+00	    0.000000E+00	
   -7.222218E-04	    9.189208E-03	    0.000000E+00	    0.000000E+00	    1.000000E-03	    1.000000E-03	    1.000000E+03	    0.000000E+00	    0.000000E+00	    5.420064E+04	    0.000000E+00	    1.000000E+00	    0.000000E+00	    0.000000E+00	
   -2.297011E-04	    9.208521E-03	    0.000000E+00	    0.000000E+00	    1.000000E-03	    1.000000E-03	    1.000000E+03	    0.000000E+00	    0.000000E+00	    5.397405E+04	    0.000000E+00	    1.000000E+00	    0.000000E+00	    0.000000E+00	
    2.297011E-04	    9.208521E-03	    0.000000E+00	    0.000000E+00	    1.000000E-03	    1.000000E-03	    1.000000E+03	    0.000000E+00	    0.000000E+00	    5.397405E+04	    0.000000E+00	    1.000000E+00	    0.000000E+00	    0.000000E+00	
    7.222218E-04	    9.189208E-03	    0.000000E+00	    0.000000E+00	    1.000000E-03	    1.000000E-03	    1.000000E+03	    0.000000E+00	    0.000000E+00	    5.420064E+04	    0.000000E+00	    1.000000E+00	    0.000000E+00	    0.000000E+00	
    1.283774E-03	    9.142680E-03	    0.000000E+00	    0.000000E+00	    1.000000E-03	    1.000000E-03	    1.000000E+03	    0.000000E+00	    0.000000E+00	    5.475243E+04	    0.000000E+00	    1.000000E+00	    0.000000E+00	    0.000000E+00	
    1.919141E-03	    9.058167E-03	    0.000000E+00	    0.000000E+00	    1.000000E-03	    1.000000E-03	    1.000000E+03	    0.000000E+00	    0.000000E+00	    5.577653E+04	    0.000000E+00	    1.000000E+00	    0.000000E+00	    0.000000E+00	
    2.630634E-03	    8.922491E-03	    0.000000E+00	    0.000000E+00	    1.000000E-03	    1.000000E-03	    1.000000E+03	    0.000000E+00	    0.000000E+00	    5.748182E+04	    0.000000E+00	    1.000000E+00	    0.000000E+00	    0.000000E+00	
    3.416558E-03	    8.720436E-03	    0.000000E+00	    0.000000E+00	    1.000000E-03	    1.000000E-03	    1.000000E+03	    0.000000E+00	    0.000000E+00	    6.017035E+04	    0.000000E+00	    1.000000E+00	    0.000000E+00	    0.000000E+00	
    4.269433E-03	    8.435860E-03	    0.000000E+00	    0.000000E+00	    1.000000E-03	    1.000000E-03	    1.000000E+03	    0.000000E+00	    0.000000E+00	    6.428932E+04	    0.000000E+00	    1.000000E+00	    0.000000E+00	    0.000000E+00	
    5.174350E-03	    8.053808E-03	    0.000000E+00	    0.000000E+00	    1.000000E-03	    1.000000E-03	    1.000000E+03	    0.000000E+00	    0.000000E+00	    7.052006E+04	    0.000000E+00	    1.000000E+00	    0.000000E+00	    0.000000E+00	
    6.108090E-03	    7.563727E-03	    0.000000E+00	    0.000000E+00	    1.000000E-03	    1.000000E-03	    1.000000E+03	    0.000000E+00	    0.000000E+00	    7.993526E+04	    0.000000E+00	    1.000000E+00	    0.000000E+00	    0.000000E+00	
    7.039824E-03	    6.963388E-03	    0.000000E+00	    0.000000E+00	    1.000000E-03	    1.000000E-03	    1.000000E+03	    0.000000E+00	    0.000000E+00	    9.428453E+04	    0.000000E+00	    1.000000E+00	    0.000000E+00	    0.000000E+00	
    7.934051E-03	    6.262504E-03	    0.000000E+00	    0.000000E+00	    1.000000E-03	    1.000000E-03	    1.000000E+03	    0.000000E+00	    0.000000E+00	    1.165296E+05	    0.000000E+00	    1.000000E+00	    0.000000E+00	    0.000000E+00	
    8.755706E-03	    5.484475E-03	    0.000000E+00	    0.000000E+00	    1.000000E-03	    1.000000E-03	    1.000000E+03	    0.000000E+00	    0.000000E+00	    1.518786E+05	    0.000000E+00	    1.000000E+00	    0.000000E+00	    0.000000E+00	
    9.476235E-03	    4.664867E-03	    0.000000E+00	    0.000000E+00	    1.000000E-03	    1.000000E-03	    1.000000E+03	    0.000000E+00	    0.000000E+00	    2.098526E+05	    0.000000E+00	    1.000000E+00	    0.000000E+00	    0.000000E+00	
    1.007859E-02	    3.846298E-03	    0.000000E+00	    0.000000E+00	    1.000000E-03	    1.000000E-03	    1.000000E+03	    0.000000E+00	    0.000000E+00	    3.085559E+05	    0.000000E+00	    1.000000E+00	    0.000000E+00	    0.000000E+00	
    1.055926E-02	    3.071062E-03	    0.000000E+00	    0.000000E+00	    1.000000E-03	    1.000000E-03	    1.000000E+03	    0.000000E+00	    0.000000E+00	    4.838142E+05	    0.000000E+00	    1.000000E+00	    0.000000E+00	    0.000000E+00	
    1.092667E-02	    2.373929E-03	    0.000000E+00	    0.000000E+00	    1.000000E-03	    1.000000E-03	    1.000000E+03	    0.000000E+00	    0.000000E+00	    8.094178E+05	    0.000000E+00	    1.000000E+00	    0.000000E+00	    0.000000E+00	
    1.119711E-02	    1.777393E-03	    0.000000E+00	    0.000000E+00	    1.000000E-03	    1.000000E-03	    1.000000E+03	    0.000000E+00	    0.000000E+00	    1.443495E+06	    0.000000E+00	    1.000000E+00	    0.000000E+00	    0.000000E+00	
    1.139001E-02	    1.290357E-03	    0.000000E+00	    0.000000E+00	    1.000000E-03	    1.000000E-03	    1.000000E+03	    0.000000E+00	    0.000000E+00	    2.738163E+06	    0.000000E+00	    1.000000E+00	    0.000000E+00	    0.000000E+00	
    1.152417E-02	    9.098472E-04	    0.000000E+00	    0.000000E+00	    1.000000E-03	    1.000000E-03	    1.000000E+03	    0.000000E+00	    0.000000E+00	    5.506326E+06	    0.000000E+00	    1.000000E+00	    0.000000E+00	    0.000000E+00	
    1.161559E-02	    6.244832E-04	    0.000000E+00	    0.000000E+00	    1.000000E-03	    1.000000E-03	    1.000000E+03	    0.000000E+00	    0.000000E+00	    1.168683E+07	    0.000000E+00	    1.000000E+00	    0.000000E+00	    0.000000E+00	
    1.167683E-02	    4.183832E-04	    0.000000E+00	    0.000000E+00	    1.000000E-03	    1.000000E-03	    1.000000E+03	    0.000000E+00	    0.000000E+00	    2.603433E+07	    0.000000E+00	    1.000000E+00	    0.000000E+00	    0.000000E+00	
    1.171724E-02	    2.745264E-04	    0.000000E+00	    0.000000E+00	    1.000000E-03	    1.000000E-03	    1.000000E+03	    0.000000E+00	    0.000000E+00	    6.046392E+07	    0.000000E+00	    1.000000E+00	    0.000000E+00	    0.000000E+00	
    1.174353E-02	    1.771104E-04	    0.000000E+00	    0.000000E+00	    1.000000E-03	    1.000000E-03	    1.000000E+03	    0.000000E+00	    0.000000E+00	    1.452632E+08	    0.000000E+00	    1.000000E+00	    0.000000E+00	    0.000000E+00	
    1.176040E-02	    1.128390E-04	    0.000000E+00	    0.000000E+00	    1.000000E-03	    1.000000E-03	    1.000000E+03	    0.000000E+00	    0.000000E+00	    3.578589E+08	    0.000000E+00	    1.000000E+00	    0.000000E+00	    0.000000E+00	
    1.177109E-02	    7.133413E-05	    0.000000E+00	    0.000000E+00	    1.000000E-03	    1.000000E-03	    1.000000E+03	    0.000000E+00	    0.000000E+00	    8.954200E+08	    0.000000E+00	    1.000000E+00	    0.000000E+00	    0.000000E+00	
    1.177484E-02	    5.664026E-05	    0.000000E+00	    0.000000E+00	    1.000000E-03	    1.000000E-03	    1.000000E+03	    0.000000E+00	    0.000000E+00	    0.000000E+00	    0.000000E+00	    1.000000E+00	    0.000000E+00	    0.000000E+00	
   -1.177451E-02	    5.655661E-05	    0.000000E+00	    0.000000E+00	    1.000000E-03	    1.000000E-03	    1.000000E+03	    0.000000E+00	    0.000000E+00	    0.000000E+00	    0.000000E+00	    1.000000E+00	    0.000000E+00	    0.000000E+00	
   -1.177068E-02	    7.122827E-05	    1.363921E-04	   -1.000000E+00	    1.600000E-03	    1.600000E-03	    8.010000E+02	    1.471708E-15	    1.645190E-09	    8.954200E+08	    6.884696E+04	    1.000000E+00	    4.224500E-07	    6.625877E+01	
   -1.175975E-02	    1.126693E-04	    3.369534E-04	   -1.000000E+00	    1.600000E-03	    1.600000E-03	    8.010000E+02	    8.316402E-15	    3.715479E-09	    3.578589E+08	    1.678359E+05	    1.000000E+00	    6.682405E-07	    9.831243E+01	
   -1.174251E-02	    1.768385E-04	    6.007756E-04	   -1.000000E+00	    1.600000E-03	    1.600000E-03	    8.010000E+02	    6.517430E-14	    1.181951E-08	    1.452632E+08	    2.165613E+05	    1.000000E+00	    1.048844E-06	    1.269074E+02	
   -1.171568E-02	    2.740919E-04	    9.619806E-04	   -1.000000E+00	    1.600000E-03	    1.600000E-03	    8.010000E+02	    4.020676E-13	    3.035030E-08	    6.046392E+07	    2.310966E+05	    1.000000E+00	    1.625701E-06	    1.355387E+02	
   -1.167445E-02	    4.176918E-04	    1.458591E-03	   -1.000000E+00	    1.600000E-03	    1.600000E-03	    8.010000E+02	    2.150514E-12	    6.989661E-08	    2.603433E+07	    2.287302E+05	    1.000000E+00	    2.477511E-06	    1.342849E+02	
   -1.161206E-02	    6.233886E-04	    2.134920E-03	   -1.000000E+00	    1.600000E-03	    1.600000E-03	    8.010000E+02	    1.029909E-11	    1.502668E-07	    1.168683E+07	    2.199322E+05	    1.000000E+00	    3.697773E-06	    1.293688E+02	
   -1.151907E-02	    9.081261E-04	    3.039651E-03	   -1.000000E+00	    1.600000E-03	    1.600000E-03	    8.010000E+02	    4.454548E-11	    3.062197E-07	    5.506326E+06	    2.100006E+05	    1.000000E+00	    5.387134E-06	    1.238858E+02	
   -1.138286E-02	    1.287678E-03	    4.218528E-03	   -1.000000E+00	    1.600000E-03	    1.600000E-03	    8.010000E+02	    1.738491E-10	    5.942911E-07	    2.738163E+06	    2.010623E+05	    1.000000E+00	    7.639397E-06	    1.191075E+02	
   -1.118742E-02	    1.773282E-03	    5.704196E-03	   -1.000000E+00	    1.600000E-03	    1.600000E-03	    8.010000E+02	    6.092098E-10	    1.097867E-06	    1.443495E+06	    1.937057E+05	    1.000000E+00	    1.052158E-05	    1.153995E+02	
   -1.091405E-02	    2.367751E-03	    7.503702E-03	   -1.000000E+00	    1.600000E-03	    1.600000E-03	    8.010000E+02	    1.905113E-09	    1.925134E-06	    8.094178E+05	    1.878451E+05	    1.000000E+00	    1.405084E-05	    1.127193E+02	
   -1.054349E-02	    3.062031E-03	    9.584160E-03	   -1.000000E+00	    1.600001E-03	    1.600000E-03	    8.010000E+02	    5.282738E-09	    3.190841E-06	    4.838142E+05	    1.830420E+05	    1.000000E+00	    1.817396E-05	    1.107910E+02	
   -1.005975E-02	    3.833542E-03	    1.187944E-02	   -1.000000E+00	    1.600003E-03	    1.600000E-03	    8.010000E+02	    1.295669E-08	    4.991090E-06	    3.085559E+05	    1.792001E+05	    1.000000E+00	    2.275737E-05	    1.095333E+02	
   -9.454752E-03	    4.647547E-03	    1.428203E-02	   -1.000000E+00	    1.600006E-03	    1.600000E-03	    8.010000E+02	    2.807129E-08	    7.354348E-06	    2.098526E+05	    1.760068E+05	    1.000000E+00	    2.759510E-05	    1.087163E+02	
   -8.732379E-03	    5.461936E-03	    1.665886E-02	   -1.000000E+00	    1.600012E-03	    1.600000E-03	    8.010000E+02	    5.377262E-08	    1.019589E-05	    1.518786E+05	    1.731545E+05	    1.000000E+00	    3.243705E-05	    1.080618E+02	
   -7.909924E-03	    6.234411E-03	    1.889463E-02	   -1.000000E+00	    1.600020E-03	    1.600000E-03	    8.010000E+02	    9.179037E-08	    1.335368E-05	    1.165296E+05	    1.707569E+05	    1.000000E+00	    3.703157E-05	    1.076196E+02	
   -7.016028E-03	    6.929793E-03	    2.091896E-02	   -1.000000E+00	    1.600031E-03	    1.600000E-03	    8.010000E+02	    1.413959E-07	    1.664351E-05	    9.428453E+04	    1.692152E+05	    1.000000E+00	    4.116905E-05	    1.076261E+02	
   -6.085670E-03	    7.525043E-03	    2.263736E-02	   -1.000000E+00	    1.600044E-03	    1.600000E-03	    8.010000E+02	    1.980055E-07	    1.975982E-05	    7.993526E+04	    1.678807E+05	    1.000000E+00	    4.471187E-05	    1.075891E+02	
   -5.154131E-03	    8.010712E-03	    2.400648E-02	   -1.000000E+00	    1.600056E-03	    1.600000E-03	    8.010000E+02	    2.550292E-07	    2.245278E-05	    7.052006E+04	    1.664601E+05	    1.000000E+00	    4.760326E-05	    1.072969E+02	
   -4.251962E-03	    8.389165E-03	    2.507526E-02	   -1.000000E+00	    1.600068E-03	    1.600000E-03	    8.010000E+02	    3.077400E-07	    2.469962E-05	    6.428932E+04	    1.654842E+05	    1.000000E+00	    4.985681E-05	    1.071614E+02	
   -3.402107E-03	    8.670969E-03	    2.587219E-02	   -1.000000E+00	    1.600077E-03	    1.600000E-03	    8.010000E+02	    3.522291E-07	    2.645911E-05	    6.017035E+04	    1.648214E+05	    1.000000E+00	    5.153513E-05	    1.071053E+02	
   -2.619251E-03	    8.871008E-03	    2.643808E-02	   -1.000000E+00	    1.600085E-03	    1.600000E-03	    8.010000E+02	    3.867316E-07	    2.775285E-05	    5.748182E+04	    1.643759E+05	    1.000000E+00	    5.272663E-05	    1.070830E+02	
   -1.910711E-03	    9.005308E-03	    2.681789E-02	   -1.000000E+00	    1.600090E-03	    1.600000E-03	    8.010000E+02	    4.113250E-07	    2.864205E-05	    5.577653E+04	    1.640848E+05	    1.000000E+00	    5.352663E-05	    1.070739E+02	
   -1.278083E-03	    9.088956E-03	    2.705418E-02	   -1.000000E+00	    1.600094E-03	    1.600000E-03	    8.010000E+02	    4.272368E-07	    2.920382E-05	    5.475243E+04	    1.639040E+05	    1.000000E+00	    5.402493E-05	    1.070687E+02	
   -7.190037E-04	    9.135004E-03	    2.718384E-02	   -1.000000E+00	    1.600096E-03	    1.600000E-03	    8.010000E+02	    4.361847E-07	    2.951497E-05	    5.420064E+04	    1.638007E+05	    1.000000E+00	    5.429926E-05	    1.070634E+02	
   -2.286755E-04	    9.154117E-03	    2.723698E-02	   -1.000000E+00	    1.600097E-03	    1.600000E-03	    8.010000E+02	    4.399176E-07	    2.964312E-05	    5.397405E+04	    1.637499E+05	    1.000000E+00	    5.441312E-05	    1.070558E+02	
    2.286755E-04	    9.154117E-03	    2.723698E-02	   -1.000000E+00	    1.600097E-03	    1.600000E-03	    8.010000E+02	    4.399176E-07	    2.964312E-05	    5.397405E+04	    1.637499E+05	    1.000000E+00	    5.441312E-05	    1.070558E+02	
    7.190037E-04	    9.135004E-03	    2.718384E-02	   -1.000000E+00	    1.600096E-03	    1.600000E-03	    8.010000E+02	    4.361847E-07	    2.951497E-05	    5.420064E+04	    1.638007E+05	    1.000000E+00	    5.429926E-05	    1.070634E+02	
    1.278083E-03	    9.088956E-03	    2.705418E-02	   -1.000000E+00	    1.600094E-03	    1.600000E-03	    8.010000E+02	    4.272368E-07	    2.920382E-05	    5.475243E+04	    1.639040E+05	    1.000000E+00	    5.402493E-05	    1.070687E+02	
    1.910711E-03	    9.005308E-03	    2.681789E-02	   -1.000000E+00	    1.600090E-03	    1.600000E-03	    8.010000E+02	    4.113250E-07	    2.864205E-05	    5.577653E+04	    1.640848E+05	    1.000000E+00	    5.352663E-05	    1.070739E+02	
    2.619251E-03	    8.871008E-03	    2.643808E-02	   -1.000000E+00	    1.600085E-03	    1.600000E-03	    8.010000E+02	    3.867316E-07	    2.775285E-05	    5.748182E+04	    1.643759E+05	    1.000000E+00	    5.272663E-05	    1.070830E+02	
    3.402107E-03	    8.670969E-03	    2.587219E-02	   -1.000000E+00	    1.600077E-03	    1.600000E-03	    8.010000E+02	    3.522291E-07	    2.645911E-05	    6.017035E+04	    1.648214E+05	    1.000000E+00	    5.153513E-05	    1.071053E+02	
    4.251962E-03	    8.389165E-03	    2.507526E-02	   -1.000000E+00	    1.600068E-03	    1.600000E-03	    8.010000E+02	    3.077400E-07	    2.469962E-05	    6.428932E+04	    1.654842E+05	    1.000000E+00	    4.985681E-05	    1.071614E+02	
    5.154131E-03	    8.010712E-03	    2.400648E-02	   -1.000000E+00	    1.600056E-03	    1.600000E-03	    8.010000E+02	    2.550292E-07	    2.245278E-05	    7.052006E+04	    1.664601E+05	    1.000000E+00	    4.760326E-05	    1.072969E+02	
    6.085670E-03	    7.525043E-03	    2.263736E-02	   -1.000000E+00	    1.600044E-03	    1.600000E-03	    8.010000E+02	    1.980055E-07	    1.975982E-05	    7.993526E+04	    1.678807E+05	    1.000000E+00	    4.471187E-05	    1.075891E+02	
    7.016028E-03	    6.929793E-03	    2.091896E-02	   -1.000000E+00	    1.600031E-03	    1.600000E-03	    8.010000E+02	    1.413959E-07	    1.664351E-05	    9.428453E+04	    1.692152E+05	    1.000000E+00	    4.116905E-05	    1.076261E+02	
    7.909924E-03	    6.234411E-03	    1.889463E-02	   -1.000000E+00	    1.600020E-03	    1.600000E-03	    8.010000E+02	    9.179037E-08	    1.335368E-05	    1.165296E+05	    1.707569E+05	    1.000000E+00	    3.703157E-05	    1.076196E+02	
    8.732379E-03	    5.461936E-03	    1.665886E-02	   -1.000000E+00	    1.600012E-03	    1.600000E-03	    8.010000E+02	    5.377262E-08	    1.019589E-05	    1.518786E+05	    1.731545E+05	    1.000000E+00	    3.243705E-05	    1.080618E+02	
    9.454752E-03	    4.647547E-03	    1.428203E-02	   -1.000000E+00	    1.600006E-03	    1.600000E-03	    8.010000E+02	    2.807129E-08	    7.354348E-06	    2.098526E+05	    1.760068E+05	    1.000000E+00	    2.759510E-05	    1.087163E+02	
    1.005975E-02	    3.833542E-03	    1.187944E-02	   -1.000000E+00	    1.600003E-03	    1.600000E-03	    8.010000E+02	    1.295669E-08	    4.991090E-06	    3.085559E+05	    1.792001E+05	    1.000000E+00	    2.275737E-05	    1.095333E+02	
    1.054349E-02	    3.062031E-03	    9.584160E-03	   -1.000000E+00	    1.600001E-03	    1.600000E-03	    8.010000E+02	    5.282738E-09	    3.190841E-06	    4.838142E+05	    1.830420E+05	    1.000000E+00	    1.817396E-05	    1.107910E+02	
    1.091405E-02	    2.367751E-03	    7.503702E-03	   -1.000000E+00	    1.600000E-03	    1.600000E-03	    8.010000E+02	    1.905113E-09	    1.925134E-06	    8.094178E+05	    1.878451E+05	    1.000000E+00	    1.405084E-05	    1.127193E+02	
    1.118742E-02	    1.773282E-03	    5.704196E-03	   -1.000000E+00	    1.600000E-03	    1.600000E-03	    8.010000E+02	    6.092098E-10	    1.097867E-06	    1.443495E+06	    1.937057E+05	    1.000000E+00	    1.052158E-05	    1.153995E+02	
    1.138286E-02	    1.287678E-03	    4.218528E-03	   -1.000000E+00	    1.600000E-03	    1.600000E-03	    8.010000E+02	    1.738491E-10	    5.942911E-07	    2.738163E+06	    2.010623E+05	    1.000000E+00	    7.639397E-06	    1.191075E+02	
    1.151907E-02	    9.081261E-04	    3.039651E-03	   -1.000000E+00	    1.600000E-03	    1.600000E-03	    8.010000E+02	    4.454548E-11	    3.062197E-07	    5.506326E+06	    2.100006E+05	    1.000000E+00	    5.387134E-06	    1.238858E+02	
    1.161206E-02	    6.233886E-04	    2.134920E-03	   -1.000000E+00	    1.600000E-03	    1.600000E-03	    8.010000E+02	    1.029909E-11	    1.502668E-07	    1.168683E+07	    2.199322E+05	    1.000000E+00	    3.697773E-06	    1.293688E+02	
    1.167445E-02	    4.176918E-04	    1.458591E-03	   -1.000000E+00	    1.600000E-03	    1.600000E-03	    8.010000E+02	    2.150514E-12	    6.989661E-08	    2.603433E+07	    2.287302E+05	    1.000000E+00	    2.477511E-06	    1.342849E+02	
    1.171568E-02	    2.740919E-04	    9.619806E-04	   -1.000000E+00	    1.600000E-03	    1.600000E-03	    8.010000E+02	    4.020676E-13	    3.035030E-08	    6.046392E+07	    2.310966E+05	    1.000000E+00	    1.625701E-06	    1.355387E+02	
    1.174251E-02	    1.768385E-04	    6.007756E-04	   -1.000000E+00	    1.600000E-03	    1.600000E-03	    8.010000E+02	    6.517430E-14	    1.181951E-08	    1.452632E+08	    2.165613E+05	    1.000000E+00	    1.048844E-06	    1.269074E+02	
    1.175975E-02	    1.126693E-04	    3.369534E-04	   -1.000000E+00	    1.600000E-03	    1.600000E-03	    8.010000E+02	    8.316402E-15	    3.715479E-09	    3.578589E+08	    1.678359E+05	    1.000000E+00	    6.682405E-07	    9.831243E+01	
    1.177068E-02	    7.122827E-05	    1.363921E-04	   -1.000000E+00	    1.600000E-03	    1.600000E-03	    8.010000E+02	    1.471708E-15	    1.645190E-09	    8.954200E+08	    6.884696E+04	    1.000000E+00	    4.224500E-07	    6.625877E+01	
    1.177451E-02	    5.655661E-05	    0.000000E+00	    0.000000E+00	    1.000000E-03	    1.000000E-03	    1.000000E+03	    0.000000E+00	    0.000000E+00	    6.950464E+05	    0.000000E+00	    1.000000E+00	    0.000000E+00	    0.000000E+00	
   -1.177376E-02	    5.635590E-05	    0.000000E+00	    0.000000E+00	    1.000000E-03	    1.000000E-03	    1.000000E+03	    0.000000E+00	    0.000000E+00	    6.950464E+05	    0.000000E+00	    1.000000E+00	    0.000000E+00	    0.000000E+00	
   -1.176974E-02	    7.097432E-05	    3.336144E-04	   -1.000000E+00	    1.600000E-03	    1.600000E-03	    8.010000E+02	    2.565725E-11	    2.226339E-08	    6.950464E+05	    4.096407E+04	    1.000000E+00	    1.400078E-06	    4.627789E-01	
   -1.175826E-02	    1.122623E-04	    8.241908E-04	   -1.000000E+00	    1.600000E-03	    1.600000E-03	    8.010000E+02	    8.559439E-15	    5.328238E-10	    4.986213E+07	    9.933892E+04	    2.722677E-04	    2.214622E-06	    8.502854E-10	
   -1.174018E-02	    1.761871E-04	    1.469434E-03	   -1.000000E+00	    1.600000E-03	    1.600000E-03	    8.010000E+02	    7.282622E-14	    1.840764E-09	    2.024617E+07	    1.281195E+05	    7.617700E-04	    3.475858E-06	    9.330462E-09	
   -1.171206E-02	    2.730523E-04	    2.352695E-03	   -1.000000E+00	    1.600000E-03	    1.600000E-03	    8.010000E+02	    5.237856E-13	    5.513317E-09	    8.431249E+06	    1.366791E+05	    9.487107E-03	    5.387260E-06	    7.159055E-08	
   -1.166896E-02	    4.160402E-04	    3.566725E-03	   -1.000000E+00	    1.600000E-03	    1.600000E-03	    8.010000E+02	    3.126230E-12	    1.478802E-08	    3.788974E+06	    1.352316E+05	    1.000000E+00	    8.209331E-06	    4.227652E-07	
   -1.160391E-02	    6.207801E-04	    5.219424E-03	   -1.000000E+00	    1.600000E-03	    1.600000E-03	    8.010000E+02	    1.916712E-11	    4.071077E-08	    1.701316E+06	    1.299641E+05	    1.000000E+00	    1.225130E-05	    2.491037E-06	
   -1.150730E-02	    9.040364E-04	    7.428965E-03	   -1.000000E+00	    1.600000E-03	    1.600000E-03	    8.010000E+02	    1.102721E-10	    1.103911E-07	    8.018641E+05	    1.240055E+05	    1.000000E+00	    1.784556E-05	    1.367435E-05	
   -1.136638E-02	    1.281332E-03	    1.030575E-02	   -1.000000E+00	    1.600000E-03	    1.600000E-03	    8.010000E+02	    5.835306E-10	    2.906230E-07	    3.989319E+05	    1.186093E+05	    1.000000E+00	    2.530106E-05	    6.921216E-05	
   -1.116513E-02	    1.763580E-03	    1.392747E-02	   -1.000000E+00	    1.600001E-03	    1.600000E-03	    8.010000E+02	    2.771562E-09	    7.281207E-07	    2.104317E+05	    1.141202E+05	    1.000000E+00	    3.483712E-05	    3.162913E-04	
   -1.088502E-02	    2.353224E-03	    1.830860E-02	   -1.000000E+00	    1.600003E-03	    1.600000E-03	    8.010000E+02	    1.155946E-08	    1.704067E-06	    1.180815E+05	    1.104857E+05	    1.000000E+00	    4.650702E-05	    1.277155E-03	
   -1.050726E-02	    3.040873E-03	    2.336582E-02	   -1.000000E+00	    1.600009E-03	    1.600000E-03	    8.010000E+02	    4.157150E-08	    3.666179E-06	    7.063996E+04	    1.074447E+05	    1.000000E+00	    6.013071E-05	    4.466638E-03	
   -1.001651E-02	    3.803760E-03	    2.893529E-02	   -1.000000E+00	    1.600028E-03	    1.600000E-03	    8.010000E+02	    1.281368E-07	    7.213457E-06	    4.509227E+04	    1.049392E+05	    1.000000E+00	    7.526290E-05	    1.344658E-02	
   -9.405526E-03	    4.607235E-03	    3.475362E-02	   -1.000000E+00	    1.600074E-03	    1.600000E-03	    8.010000E+02	    3.376440E-07	    1.293940E-05	    3.069641E+04	    1.027785E+05	    1.000000E+00	    9.122058E-05	    3.470255E-02	
   -8.678995E-03	    5.409625E-03	    4.049719E-02	   -1.000000E+00	    1.600167E-03	    1.600000E-03	    8.010000E+02	    7.577827E-07	    2.103612E-05	    2.223584E+04	    1.007719E+05	    1.000000E+00	    1.071776E-04	    7.636324E-02	
   -7.854777E-03	    6.169368E-03	    4.588811E-02	   -1.000000E+00	    1.600324E-03	    1.600000E-03	    8.010000E+02	    1.472092E-06	    3.137841E-05	    1.707374E+04	    9.898143E+04	    1.000000E+00	    1.223059E-04	    1.457098E-01	
   -6.961699E-03	    6.852166E-03	    5.076024E-02	   -1.000000E+00	    1.600555E-03	    1.600000E-03	    8.010000E+02	    2.520650E-06	    4.349931E-05	    1.382300E+04	    9.765413E+04	    1.000000E+00	    1.359181E-04	    2.461519E-01	
   -6.034532E-03	    7.435802E-03	    5.488797E-02	   -1.000000E+00	    1.600840E-03	    1.600000E-03	    8.010000E+02	    3.818857E-06	    5.589901E-05	    1.172474E+04	    9.643252E+04	    1.000000E+00	    1.475655E-04	    3.682620E-01	
   -5.108051E-03	    7.911422E-03	    5.816938E-02	   -1.000000E+00	    1.601143E-03	    1.600000E-03	    8.010000E+02	    5.195705E-06	    6.711763E-05	    1.034724E+04	    9.518142E+04	    1.000000E+00	    1.570655E-04	    4.945346E-01	
   -4.212168E-03	    8.281685E-03	    6.072772E-02	   -1.000000E+00	    1.601438E-03	    1.600000E-03	    8.010000E+02	    6.535592E-06	    7.698441E-05	    9.435184E+03	    9.424380E+04	    1.000000E+00	    1.644663E-04	    6.159390E-01	