Title="Fields"
Variables="X""Y""Velocity""Phi""Effective Viscosity""Dynamic Viscosity""Density""Eddy Viscosity""K""Omega""S""F1SST""distance""GEN"
Zone I=52 J=52 F=POINT
   -1.183376E-02	    5.707443E-05	    0.000000E+00	    0.000000E+00	    1.000000E-03	    1.000000E-03	    1.000000E+03	    0.000000E+00	    0.000000E+00	    4.785699E+08	    0.000000E+00	    1.000000E+00	    0.000000E+00	    0.000000E+00	
   -1.183720E-02	    7.192477E-05	    0.000000E+00	    0.000000E+00	    1.000000E-03	    1.000000E-03	    1.000000E+03	    0.000000E+00	    0.000000E+00	    4.785699E+08	    0.000000E+00	    1.000000E+00	    0.000000E+00	    0.000000E+00	
   -1.184685E-02	    1.139696E-04	    0.000000E+00	    0.000000E+00	    1.000000E-03	    1.000000E-03	    1.000000E+03	    0.000000E+00	    0.000000E+00	    1.906060E+08	    0.000000E+00	    1.000000E+00	    0.000000E+00	    0.000000E+00	
   -1.186155E-02	    1.793642E-04	    0.000000E+00	    0.000000E+00	    1.000000E-03	    1.000000E-03	    1.000000E+03	    0.000000E+00	    0.000000E+00	    7.695941E+07	    0.000000E+00	    1.000000E+00	    0.000000E+00	    0.000000E+00	
   -1.188325E-02	    2.791533E-04	    0.000000E+00	    0.000000E+00	    1.000000E-03	    1.000000E-03	    1.000000E+03	    0.000000E+00	    0.000000E+00	    3.177434E+07	    0.000000E+00	    1.000000E+00	    0.000000E+00	    0.000000E+00	
   -1.191400E-02	    4.280115E-04	    0.000000E+00	    0.000000E+00	    1.000000E-03	    1.000000E-03	    1.000000E+03	    0.000000E+00	    0.000000E+00	    1.351742E+07	    0.000000E+00	    1.000000E+00	    0.000000E+00	    0.000000E+00	
   -1.195525E-02	    6.444468E-04	    0.000000E+00	    0.000000E+00	    1.000000E-03	    1.000000E-03	    1.000000E+03	    0.000000E+00	    0.000000E+00	    5.963385E+06	    0.000000E+00	    1.000000E+00	    0.000000E+00	    0.000000E+00	
   -1.200668E-02	    9.504528E-04	    0.000000E+00	    0.000000E+00	    1.000000E-03	    1.000000E-03	    1.000000E+03	    0.000000E+00	    0.000000E+00	    2.742166E+06	    0.000000E+00	    1.000000E+00	    0.000000E+00	    0.000000E+00	
   -1.206428E-02	    1.370363E-03	    0.000000E+00	    0.000000E+00	    1.000000E-03	    1.000000E-03	    1.000000E+03	    0.000000E+00	    0.000000E+00	    1.319484E+06	    0.000000E+00	    1.000000E+00	    0.000000E+00	    0.000000E+00	
   -1.211791E-02	    1.928653E-03	    0.000000E+00	    0.000000E+00	    1.000000E-03	    1.000000E-03	    1.000000E+03	    0.000000E+00	    0.000000E+00	    6.663898E+05	    0.000000E+00	    1.000000E+00	    0.000000E+00	    0.000000E+00	
   -1.214888E-02	    2.646460E-03	    0.000000E+00	    0.000000E+00	    1.000000E-03	    1.000000E-03	    1.000000E+03	    0.000000E+00	    0.000000E+00	    3.540904E+05	    0.000000E+00	    1.000000E+00	    0.000000E+00	    0.000000E+00	
   -1.212831E-02	    3.536748E-03	    0.000000E+00	    0.000000E+00	    1.000000E-03	    1.000000E-03	    1.000000E+03	    0.000000E+00	    0.000000E+00	    1.983803E+05	    0.000000E+00	    1.000000E+00	    0.000000E+00	    0.000000E+00	
   -1.201781E-02	    4.598509E-03	    0.000000E+00	    0.000000E+00	    1.000000E-03	    1.000000E-03	    1.000000E+03	    0.000000E+00	    0.000000E+00	    1.174347E+05	    0.000000E+00	    1.000000E+00	    0.000000E+00	    0.000000E+00	
   -1.177378E-02	    5.811229E-03	    0.000000E+00	    0.000000E+00	    1.000000E-03	    1.000000E-03	    1.000000E+03	    0.000000E+00	    0.000000E+00	    7.360228E+04	    0.000000E+00	    1.000000E+00	    0.000000E+00	    0.000000E+00	
   -1.135574E-02	    7.131948E-03	    0.000000E+00	    0.000000E+00	    1.000000E-03	    1.000000E-03	    1.000000E+03	    0.000000E+00	    0.000000E+00	    4.892132E+04	    0.000000E+00	    1.000000E+00	    0.000000E+00	    0.000000E+00	
   -1.073719E-02	    8.497523E-03	    0.000000E+00	    0.000000E+00	    1.000000E-03	    1.000000E-03	    1.000000E+03	    0.000000E+00	    0.000000E+00	    3.450909E+04	    0.000000E+00	    1.000000E+00	    0.000000E+00	    0.000000E+00	
   -9.915114E-03	    9.833435E-03	    0.000000E+00	    0.000000E+00	    1.000000E-03	    1.000000E-03	    1.000000E+03	    0.000000E+00	    0.000000E+00	    2.581298E+04	    0.000000E+00	    1.000000E+00	    0.000000E+00	    0.000000E+00	
   -8.913849E-03	    1.106737E-02	    0.000000E+00	    0.000000E+00	    1.000000E-03	    1.000000E-03	    1.000000E+03	    0.000000E+00	    0.000000E+00	    2.041760E+04	    0.000000E+00	    1.000000E+00	    0.000000E+00	    0.000000E+00	
   -7.780832E-03	    1.214284E-02	    0.000000E+00	    0.000000E+00	    1.000000E-03	    1.000000E-03	    1.000000E+03	    0.000000E+00	    0.000000E+00	    1.699706E+04	    0.000000E+00	    1.000000E+00	    0.000000E+00	    0.000000E+00	
   -6.575978E-03	    1.302772E-02	    0.000000E+00	    0.000000E+00	    1.000000E-03	    1.000000E-03	    1.000000E+03	    0.000000E+00	    0.000000E+00	    1.479771E+04	    0.000000E+00	    1.000000E+00	    0.000000E+00	    0.000000E+00	
   -5.359277E-03	    1.371527E-02	    0.000000E+00	    0.000000E+00	    1.000000E-03	    1.000000E-03	    1.000000E+03	    0.000000E+00	    0.000000E+00	    1.337673E+04	    0.000000E+00	    1.000000E+00	    0.000000E+00	    0.000000E+00	
   -4.181147E-03	    1.421903E-02	    0.000000E+00	    0.000000E+00	    1.000000E-03	    1.000000E-03	    1.000000E+03	    0.000000E+00	    0.000000E+00	    1.246509E+04	    0.000000E+00	    1.000000E+00	    0.000000E+00	    0.000000E+00	
   -3.077682E-03	    1.456485E-02	    0.000000E+00	    0.000000E+00	    1.000000E-03	    1.000000E-03	    1.000000E+03	    0.000000E+00	    0.000000E+00	    1.189389E+04	    0.000000E+00	    1.000000E+00	    0.000000E+00	    0.000000E+00	
   -2.070339E-03	    1.478342E-02	    0.000000E+00	    0.000000E+00	    1.000000E-03	    1.000000E-03	    1.000000E+03	    0.000000E+00	    0.000000E+00	    1.155363E+04	    0.000000E+00	    1.000000E+00	    0.000000E+00	    0.000000E+00	
   -1.168342E-03	    1.490481E-02	    0.000000E+00	    0.000000E+00	    1.000000E-03	    1.000000E-03	    1.000000E+03	    0.000000E+00	    0.000000E+00	    1.137118E+04	    0.000000E+00	    1.000000E+00	    0.000000E+00	    0.000000E+00	
   -3.720686E-04	    1.495541E-02	    0.000000E+00	    0.000000E+00	    1.000000E-03	    1.000000E-03	    1.000000E+03	    0.000000E+00	    0.000000E+00	    1.129644E+04	    0.000000E+00	    1.000000E+00	    0.000000E+00	    0.000000E+00	
    3.720686E-04	    1.495541E-02	    0.000000E+00	    0.000000E+00	    1.000000E-03	    1.000000E-03	    1.000000E+03	    0.000000E+00	    0.000000E+00	    1.129644E+04	    0.000000E+00	    1.000000E+00	    0.000000E+00	    0.000000E+00	
    1.168342E-03	    1.490481E-02	    0.000000E+00	    0.000000E+00	    1.000000E-03	    1.000000E-03	    1.000000E+03	    0.000000E+00	    0.000000E+00	    1.137118E+04	    0.000000E+00	    1.000000E+00	    0.000000E+00	    0.000000E+00	
    2.070339E-03	    1.478342E-02	    0.000000E+00	    0.000000E+00	    1.000000E-03	    1.000000E-03	    1.000000E+03	    0.000000E+00	    0.000000E+00	    1.155363E+04	    0.000000E+00	    1.000000E+00	    0.000000E+00	    0.000000E+00	
    3.077682E-03	    1.456485E-02	    0.000000E+00	    0.000000E+00	    1.000000E-03	    1.000000E-03	    1.000000E+03	    0.000000E+00	    0.000000E+00	    1.189389E+04	    0.000000E+00	    1.000000E+00	    0.000000E+00	    0.000000E+00	
    4.181147E-03	    1.421903E-02	    0.000000E+00	    0.000000E+00	    1.000000E-03	    1.000000E-03	    1.000000E+03	    0.000000E+00	    0.000000E+00	    1.246509E+04	    0.000000E+00	    1.000000E+00	    0.000000E+00	    0.000000E+00	
    5.359277E-03	    1.371527E-02	    0.000000E+00	    0.000000E+00	    1.000000E-03	    1.000000E-03	    1.000000E+03	    0.000000E+00	    0.000000E+00	    1.337673E+04	    0.000000E+00	    1.000000E+00	    0.000000E+00	    0.000000E+00	
    6.575978E-03	    1.302772E-02	    0.000000E+00	    0.000000E+00	    1.000000E-03	    1.000000E-03	    1.000000E+03	    0.000000E+00	    0.000000E+00	    1.479771E+04	    0.000000E+00	    1.000000E+00	    0.000000E+00	    0.000000E+00	
    7.780832E-03	    1.214284E-02	    0.000000E+00	    0.000000E+00	    1.000000E-03	    1.000000E-03	    1.000000E+03	    0.000000E+00	    0.000000E+00	    1.699706E+04	    0.000000E+00	    1.000000E+00	    0.000000E+00	    0.000000E+00	
    8.913849E-03	    1.106737E-02	    0.000000E+00	    0.000000E+00	    1.000000E-03	    1.000000E-03	    1.000000E+03	    0.000000E+00	    0.000000E+00	    2.041760E+04	    0.000000E+00	    1.000000E+00	    0.000000E+00	    0.000000E+00	
    9.915114E-03	    9.833435E-03	    0.000000E+00	    0.000000E+00	    1.000000E-03	    1.000000E-03	    1.000000E+03	    0.000000E+00	    0.000000E+00	    2.581298E+04	    0.000000E+00	    1.000000E+00	    0.000000E+00	    0.000000E+00	
    1.073719E-02	    8.497523E-03	    0.000000E+00	    0.000000E+00	    1.000000E-03	    1.000000E-03	    1.000000E+03	    0.000000E+00	    0.000000E+00	    3.450909E+04	    0.000000E+00	    1.000000E+00	    0.000000E+00	    0.000000E+00	
    1.135574E-02	    7.131948E-03	    0.000000E+00	    0.000000E+00	    1.000000E-03	    1.000000E-03	    1.000000E+03	    0.000000E+00	    0.000000E+00	    4.892132E+04	    0.000000E+00	    1.000000E+00	    0.000000E+00	    0.000000E+00	
    1.177378E-02	    5.811229E-03	    0.000000E+00	    0.000000E+00	    1.000000E-03	    1.000000E-03	    1.000000E+03	    0.000000E+00	    0.000000E+00	    7.360228E+04	    0.000000E+00	    1.000000E+00	    0.000000E+00	    0.000000E+00	
    1.201781E-02	    4.598509E-03	    0.000000E+00	    0.000000E+00	    1.000000E-03	    1.000000E-03	    1.000000E+03	    0.000000E+00	    0.000000E+00	    1.174347E+05	    0.000000E+00	    1.000000E+00	    0.000000E+00	    0.000000E+00	
    1.212831E-02	    3.536748E-03	    0.000000E+00	    0.000000E+00	    1.000000E-03	    1.000000E-03	    1.000000E+03	    0.000000E+00	    0.000000E+00	    1.983803E+05	    0.000000E+00	    1.000000E+00	    0.000000E+00	    0.000000E+00	
    1.214888E-02	    2.646460E-03	    0.000000E+00	    0.000000E+00	    1.000000E-03	    1.000000E-03	    1.000000E+03	    0.000000E+00	    0.000000E+00	    3.540904E+05	    0.000000E+00	    1.000000E+00	    0.000000E+00	    0.000000E+00	
    1.211791E-02	    1.928653E-03	    0.000000E+00	    0.000000E+00	    1.000000E-03	    1.000000E-03	    1.000000E+03	    0.000000E+00	    0.000000E+00	    6.663898E+05	    0.000000E+00	    1.000000E+00	    0.000000E+00	    0.000000E+00	
    1.206428E-02	    1.370363E-03	    0.000000E+00	    0.000000E+00	    1.000000E-03	    1.000000E-03	    1.000000E+03	    0.000000E+00	    0.000000E+00	    1.319484E+06	    0.000000E+00	    1.000000E+00	    0.000000E+00	    0.000000E+00	
    1.200668E-02	    9.504528E-04	    0.000000E+00	    0.000000E+00	    1.000000E-03	    1.000000E-03	    1.000000E+03	    0.000000E+00	    0.000000E+00	    2.742166E+06	    0.000000E+00	    1.000000E+00	    0.000000E+00	    0.000000E+00	
    1.195525E-02	    6.444468E-04	    0.000000E+00	    0.000000E+00	    1.000000E-03	    1.000000E-03	    1.000000E+03	    0.000000E+00	    0.000000E+00	    5.963385E+06	    0.000000E+00	    1.000000E+00	    0.000000E+00	    0.000000E+00	
    1.191400E-02	    4.280115E-04	    0.000000E+00	    0.000000E+00	    1.000000E-03	    1.000000E-03	    1.000000E+03	    0.000000E+00	    0.000000E+00	    1.351742E+07	    0.000000E+00	    1.000000E+00	    0.000000E+00	    0.000000E+00	
    1.188325E-02	    2.791533E-04	    0.000000E+00	    0.000000E+00	    1.000000E-03	    1.000000E-03	    1.000000E+03	    0.000000E+00	    0.000000E+00	    3.177434E+07	    0.000000E+00	    1.000000E+00	    0.000000E+00	    0.000000E+00	
    1.186155E-02	    1.793642E-04	    0.000000E+00	    0.000000E+00	    1.000000E-03	    1.000000E-03	    1.000000E+03	    0.000000E+00	    0.000000E+00	    7.695941E+07	    0.000000E+00	    1.000000E+00	    0.000000E+00	    0.000000E+00	
    1.184685E-02	    1.139696E-04	    0.000000E+00	    0.000000E+00	    1.000000E-03	    1.000000E-03	    1.000000E+03	    0.000000E+00	    0.000000E+00	    1.906060E+08	    0.000000E+00	    1.000000E+00	    0.000000E+00	    0.000000E+00	
    1.183720E-02	    7.192477E-05	    0.000000E+00	    0.000000E+00	    1.000000E-03	    1.000000E-03	    1.000000E+03	    0.000000E+00	    0.000000E+00	    4.785699E+08	    0.000000E+00	    1.000000E+00	    0.000000E+00	    0.000000E+00	
    1.183376E-02	    5.707443E-05	    0.000000E+00	    0.000000E+00	    1.000000E-03	    1.000000E-03	    1.000000E+03	    0.000000E+00	    0.000000E+00	    0.000000E+00	    0.000000E+00	    1.000000E+00	    0.000000E+00	    0.000000E+00	
   -1.183331E-02	    5.717662E-05	    0.000000E+00	    0.000000E+00	    1.000000E-03	    1.000000E-03	    1.000000E+03	    0.000000E+00	    0.000000E+00	    0.000000E+00	    0.000000E+00	    1.000000E+00	    0.000000E+00	    0.000000E+00	
   -1.183664E-02	    7.205284E-05	    5.109500E-04	   -1.000000E+00	    1.600000E-03	    1.600000E-03	    8.010000E+02	    3.416487E-14	    2.041234E-08	    4.785699E+08	    5.166385E+05	    1.000000E+00	    5.778512E-07	    4.672932E+02	
   -1.184596E-02	    1.141694E-04	    1.244264E-03	   -1.000000E+00	    1.600000E-03	    1.600000E-03	    8.010000E+02	    2.132065E-13	    5.073463E-08	    1.906060E+08	    1.218951E+06	    1.000000E+00	    9.156310E-07	    7.145303E+02	
   -1.186014E-02	    1.796708E-04	    2.199165E-03	   -1.000000E+00	    1.600000E-03	    1.600000E-03	    8.010000E+02	    1.653386E-12	    1.588559E-07	    7.695941E+07	    1.537245E+06	    1.000000E+00	    1.440980E-06	    9.022785E+02	
   -1.188106E-02	    2.796120E-04	    3.527264E-03	   -1.000000E+00	    1.600000E-03	    1.600000E-03	    8.010000E+02	    1.036225E-11	    4.110532E-07	    3.177434E+07	    1.632529E+06	    1.000000E+00	    2.242593E-06	    9.611315E+02	
   -1.191062E-02	    4.286726E-04	    5.412949E-03	   -1.000000E+00	    1.600000E-03	    1.600000E-03	    8.010000E+02	    5.793641E-11	    9.777164E-07	    1.351742E+07	    1.635276E+06	    1.000000E+00	    3.438284E-06	    9.677286E+02	
   -1.195016E-02	    6.453497E-04	    8.059348E-03	   -1.000000E+00	    1.600000E-03	    1.600000E-03	    8.010000E+02	    2.956531E-10	    2.201115E-06	    5.963385E+06	    1.598835E+06	    1.000000E+00	    5.176573E-06	    9.537475E+02	
   -1.199914E-02	    9.515919E-04	    1.170319E-02	   -1.000000E+00	    1.600000E-03	    1.600000E-03	    8.010000E+02	    1.387312E-09	    4.749364E-06	    2.742166E+06	    1.549677E+06	    1.000000E+00	    7.633819E-06	    9.354814E+02	
   -1.205334E-02	    1.371625E-03	    1.660712E-02	   -1.000000E+00	    1.600001E-03	    1.600000E-03	    8.010000E+02	    5.998995E-09	    9.882123E-06	    1.319484E+06	    1.500681E+06	    1.000000E+00	    1.100492E-05	    9.213883E+02	
   -1.210246E-02	    1.929716E-03	    2.302374E-02	   -1.000000E+00	    1.600004E-03	    1.600000E-03	    8.010000E+02	    2.386364E-08	    1.985329E-05	    6.663898E+05	    1.455600E+06	    1.000000E+00	    1.548549E-05	    9.144059E+02	
   -1.212764E-02	    2.646662E-03	    3.113847E-02	   -1.000000E+00	    1.600016E-03	    1.600000E-03	    8.010000E+02	    8.688965E-08	    3.841048E-05	    3.540904E+05	    1.413223E+06	    1.000000E+00	    2.124384E-05	    9.140136E+02	
   -1.209999E-02	    3.534940E-03	    4.106842E-02	   -1.000000E+00	    1.600052E-03	    1.600000E-03	    8.010000E+02	    2.887140E-07	    7.150457E-05	    1.983803E+05	    1.375179E+06	    1.000000E+00	    2.838209E-05	    9.214738E+02	
   -1.198134E-02	    4.592937E-03	    5.264202E-02	   -1.000000E+00	    1.600156E-03	    1.600000E-03	    8.010000E+02	    8.644191E-07	    1.267326E-04	    1.174347E+05	    1.334230E+06	    1.000000E+00	    3.688969E-05	    9.308155E+02	
   -1.172866E-02	    5.799547E-03	    6.569756E-02	   -1.000000E+00	    1.600419E-03	    1.600000E-03	    8.010000E+02	    2.328438E-06	    2.139555E-04	    7.360228E+04	    1.296523E+06	    1.000000E+00	    4.659961E-05	    9.458956E+02	
   -1.130239E-02	    7.111418E-03	    7.963834E-02	   -1.000000E+00	    1.601003E-03	    1.600000E-03	    8.010000E+02	    5.574113E-06	    3.404407E-04	    4.892132E+04	    1.255314E+06	    1.000000E+00	    5.716542E-05	    9.611095E+02	
   -1.067714E-02	    8.465447E-03	    9.412033E-02	   -1.000000E+00	    1.602144E-03	    1.600000E-03	    8.010000E+02	    1.191334E-05	    5.132566E-04	    3.450909E+04	    1.218413E+06	    1.000000E+00	    6.808044E-05	    9.833380E+02	
   -9.850999E-03	    9.787711E-03	    1.079355E-01	   -1.000000E+00	    1.604011E-03	    1.600000E-03	    8.010000E+02	    2.228129E-05	    7.180357E-04	    2.581298E+04	    1.173721E+06	    1.000000E+00	    7.874888E-05	    9.968853E+02	
   -8.849029E-03	    1.100698E-02	    1.203984E-01	   -1.000000E+00	    1.606646E-03	    1.600000E-03	    8.010000E+02	    3.692396E-05	    9.411969E-04	    2.041760E+04	    1.127152E+06	    1.000000E+00	    8.859464E-05	    1.005872E+03	
   -7.718797E-03	    1.206805E-02	    1.312983E-01	   -1.000000E+00	    1.609932E-03	    1.600000E-03	    8.010000E+02	    5.517662E-05	    1.170837E-03	    1.699706E+04	    1.087986E+06	    1.000000E+00	    9.716949E-05	    1.017055E+03	
   -6.519761E-03	    1.293996E-02	    1.403004E-01	   -1.000000E+00	    1.613488E-03	    1.600000E-03	    8.010000E+02	    7.493467E-05	    1.384347E-03	    1.479771E+04	    1.056869E+06	    1.000000E+00	    1.042202E-04	    1.027246E+03	
   -5.311064E-03	    1.361674E-02	    1.473229E-01	   -1.000000E+00	    1.616868E-03	    1.600000E-03	    8.010000E+02	    9.370864E-05	    1.564938E-03	    1.337673E+04	    1.033580E+06	    1.000000E+00	    1.096958E-04	    1.035227E+03	
   -4.142165E-03	    1.411221E-02	    1.524845E-01	   -1.000000E+00	    1.619720E-03	    1.600000E-03	    8.010000E+02	    1.095546E-04	    1.704878E-03	    1.246509E+04	    1.017072E+06	    1.000000E+00	    1.137061E-04	    1.040883E+03	
   -3.048297E-03	    1.445216E-02	    1.560348E-01	   -1.000000E+00	    1.621873E-03	    1.600000E-03	    8.010000E+02	    1.215183E-04	    1.804402E-03	    1.189389E+04	    1.006016E+06	    1.000000E+00	    1.164583E-04	    1.044585E+03	
   -2.050277E-03	    1.466694E-02	    1.582802E-01	   -1.000000E+00	    1.623319E-03	    1.600000E-03	    8.010000E+02	    1.295503E-04	    1.868636E-03	    1.155363E+04	    9.991308E+05	    1.000000E+00	    1.181975E-04	    1.046812E+03	
   -1.156929E-03	    1.478619E-02	    1.595256E-01	   -1.000000E+00	    1.624150E-03	    1.600000E-03	    8.010000E+02	    1.341683E-04	    1.904685E-03	    1.137118E+04	    9.953200E+05	    1.000000E+00	    1.191633E-04	    1.047981E+03	
   -3.684217E-04	    1.483590E-02	    1.600403E-01	   -1.000000E+00	    1.624502E-03	    1.600000E-03	    8.010000E+02	    1.361199E-04	    1.919687E-03	    1.129644E+04	    9.936890E+05	    1.000000E+00	    1.195659E-04	    1.048399E+03	
    3.684217E-04	    1.483590E-02	    1.600403E-01	   -1.000000E+00	    1.624502E-03	    1.600000E-03	    8.010000E+02	    1.361199E-04	    1.919687E-03	    1.129644E+04	    9.936890E+05	    1.000000E+00	    1.195659E-04	    1.048399E+03	
    1.156929E-03	    1.478619E-02	    1.595256E-01	   -1.000000E+00	    1.624150E-03	    1.600000E-03	    8.010000E+02	    1.341683E-04	    1.904685E-03	    1.137118E+04	    9.953200E+05	    1.000000E+00	    1.191633E-04	    1.047981E+03	
    2.050277E-03	    1.466694E-02	    1.582802E-01	   -1.000000E+00	    1.623319E-03	    1.600000E-03	    8.010000E+02	    1.295503E-04	    1.868636E-03	    1.155363E+04	    9.991308E+05	    1.000000E+00	    1.181975E-04	    1.046812E+03	
    3.048297E-03	    1.445216E-02	    1.560348E-01	   -1.000000E+00	    1.621873E-03	    1.600000E-03	    8.010000E+02	    1.215183E-04	    1.804402E-03	    1.189389E+04	    1.006016E+06	    1.000000E+00	    1.164583E-04	    1.044585E+03	
    4.142165E-03	    1.411221E-02	    1.524845E-01	   -1.000000E+00	    1.619720E-03	    1.600000E-03	    8.010000E+02	    1.095546E-04	    1.704878E-03	    1.246509E+04	    1.017072E+06	    1.000000E+00	    1.137061E-04	    1.040883E+03	
    5.311064E-03	    1.361674E-02	    1.473229E-01	   -1.000000E+00	    1.616868E-03	    1.600000E-03	    8.010000E+02	    9.370864E-05	    1.564938E-03	    1.337673E+04	    1.033580E+06	    1.000000E+00	    1.096958E-04	    1.035227E+03	
    6.519761E-03	    1.293996E-02	    1.403004E-01	   -1.000000E+00	    1.613488E-03	    1.600000E-03	    8.010000E+02	    7.493467E-05	    1.384347E-03	    1.479771E+04	    1.056869E+06	    1.000000E+00	    1.042202E-04	    1.027246E+03	
    7.718797E-03	    1.206805E-02	    1.312983E-01	   -1.000000E+00	    1.609932E-03	    1.600000E-03	    8.010000E+02	    5.517662E-05	    1.170837E-03	    1.699706E+04	    1.087986E+06	    1.000000E+00	    9.716949E-05	    1.017055E+03	
    8.849029E-03	    1.100698E-02	    1.203984E-01	   -1.000000E+00	    1.606646E-03	    1.600000E-03	    8.010000E+02	    3.692396E-05	    9.411969E-04	    2.041760E+04	    1.127152E+06	    1.000000E+00	    8.859464E-05	    1.005872E+03	
    9.850999E-03	    9.787711E-03	    1.079355E-01	   -1.000000E+00	    1.604011E-03	    1.600000E-03	    8.010000E+02	    2.228129E-05	    7.180357E-04	    2.581298E+04	    1.173721E+06	    1.000000E+00	    7.874888E-05	    9.968853E+02	
    1.067714E-02	    8.465447E-03	    9.412033E-02	   -1.000000E+00	    1.602144E-03	    1.600000E-03	    8.010000E+02	    1.191334E-05	    5.132566E-04	    3.450909E+04	    1.218413E+06	    1.000000E+00	    6.808044E-05	    9.833380E+02	
    1.130239E-02	    7.111418E-03	    7.963834E-02	   -1.000000E+00	    1.601003E-03	    1.600000E-03	    8.010000E+02	    5.574113E-06	    3.404407E-04	    4.892132E+04	    1.255314E+06	    1.000000E+00	    5.716542E-05	    9.611095E+02	
    1.172866E-02	    5.799547E-03	    6.569756E-02	   -1.000000E+00	    1.600419E-03	    1.600000E-03	    8.010000E+02	    2.328438E-06	    2.139555E-04	    7.360228E+04	    1.296523E+06	    1.000000E+00	    4.659961E-05	    9.458956E+02	
    1.198134E-02	    4.592937E-03	    5.264202E-02	   -1.000000E+00	    1.600156E-03	    1.600000E-03	    8.010000E+02	    8.644191E-07	    1.267326E-04	    1.174347E+05	    1.334230E+06	    1.000000E+00	    3.688969E-05	    9.308155E+02	
    1.209999E-02	    3.534940E-03	    4.106842E-02	   -1.000000E+00	    1.600052E-03	    1.600000E-03	    8.010000E+02	    2.887140E-07	    7.150457E-05	    1.983803E+05	    1.375179E+06	    1.000000E+00	    2.838209E-05	    9.214738E+02	
    1.212764E-02	    2.646662E-03	    3.113847E-02	   -1.000000E+00	    1.600016E-03	    1.600000E-03	    8.010000E+02	    8.688965E-08	    3.841048E-05	    3.540904E+05	    1.413223E+06	    1.000000E+00	    2.124384E-05	    9.140136E+02	
    1.210246E-02	    1.929716E-03	    2.302374E-02	   -1.000000E+00	    1.600004E-03	    1.600000E-03	    8.010000E+02	    2.386364E-08	    1.985329E-05	    6.663898E+05	    1.455600E+06	    1.000000E+00	    1.548549E-05	    9.144059E+02	
    1.205334E-02	    1.371625E-03	    1.660712E-02	   -1.000000E+00	    1.600001E-03	    1.600000E-03	    8.010000E+02	    5.998995E-09	    9.882123E-06	    1.319484E+06	    1.500681E+06	    1.000000E+00	    1.100492E-05	    9.213883E+02	
    1.199914E-02	    9.515919E-04	    1.170319E-02	   -1.000000E+00	    1.600000E-03	    1.600000E-03	    8.010000E+02	    1.387312E-09	    4.749364E-06	    2.742166E+06	    1.549677E+06	    1.000000E+00	    7.633819E-06	    9.354814E+02	
    1.195016E-02	    6.453497E-04	    8.059348E-03	   -1.000000E+00	    1.600000E-03	    1.600000E-03	    8.010000E+02	    2.956531E-10	    2.201115E-06	    5.963385E+06	    1.598835E+06	    1.000000E+00	    5.176573E-06	    9.537475E+02	
    1.191062E-02	    4.286726E-04	    5.412949E-03	   -1.000000E+00	    1.600000E-03	    1.600000E-03	    8.010000E+02	    5.793641E-11	    9.777164E-07	    1.351742E+07	    1.635276E+06	    1.000000E+00	    3.438284E-06	    9.677286E+02	
    1.188106E-02	    2.796120E-04	    3.527264E-03	   -1.000000E+00	    1.600000E-03	    1.600000E-03	    8.010000E+02	    1.036225E-11	    4.110532E-07	    3.177434E+07	    1.632529E+06	    1.000000E+00	    2.242593E-06	    9.611315E+02	
    1.186014E-02	    1.796708E-04	    2.199165E-03	   -1.000000E+00	    1.600000E-03	    1.600000E-03	    8.010000E+02	    1.653386E-12	    1.588559E-07	    7.695941E+07	    1.537245E+06	    1.000000E+00	    1.440980E-06	    9.022785E+02	
    1.184596E-02	    1.141694E-04	    1.244264E-03	   -1.000000E+00	    1.600000E-03	    1.600000E-03	    8.010000E+02	    2.132065E-13	    5.073463E-08	    1.906060E+08	    1.218951E+06	    1.000000E+00	    9.156310E-07	    7.145303E+02	
    1.183664E-02	    7.205284E-05	    5.109500E-04	   -1.000000E+00	    1.600000E-03	    1.600000E-03	    8.010000E+02	    3.416487E-14	    2.041234E-08	    4.785699E+08	    5.166385E+05	    1.000000E+00	    5.778512E-07	    4.672932E+02	
    1.183331E-02	    5.717662E-05	    0.000000E+00	    0.000000E+00	    1.000000E-03	    1.000000E-03	    1.000000E+03	    0.000000E+00	    0.000000E+00	    6.877764E+05	    0.000000E+00	    1.000000E+00	    0.000000E+00	    0.000000E+00	
   -1.183227E-02	    5.739968E-05	    0.000000E+00	    0.000000E+00	    1.000000E-03	    1.000000E-03	    1.000000E+03	    0.000000E+00	    0.000000E+00	    6.877764E+05	    0.000000E+00	    1.000000E+00	    0.000000E+00	    0.000000E+00	
   -1.183533E-02	    7.233228E-05	    1.249671E-03	   -1.000000E+00	    1.600000E-03	    1.600000E-03	    8.010000E+02	    2.902696E-10	    2.492392E-07	    6.877764E+05	    3.088698E+05	    1.000000E+00	    1.915055E-06	    5.739454E+00	
   -1.184389E-02	    1.146047E-04	    3.043178E-03	   -1.000000E+00	    1.600000E-03	    1.600000E-03	    8.010000E+02	    2.544501E-13	    8.436660E-09	    2.655831E+07	    7.217284E+05	    1.785934E-03	    3.034392E-06	    1.836438E-07	
   -1.185688E-02	    1.803379E-04	    5.378233E-03	   -1.000000E+00	    1.600000E-03	    1.600000E-03	    8.010000E+02	    2.348968E-12	    3.284075E-08	    1.119872E+07	    9.094073E+05	    9.999259E-01	    4.775153E-06	    2.136168E-06	
   -1.187596E-02	    2.806071E-04	    8.625040E-03	   -1.000000E+00	    1.600000E-03	    1.600000E-03	    8.010000E+02	    2.180768E-11	    1.259044E-07	    4.624494E+06	    9.653089E+05	    1.000000E+00	    7.430989E-06	    2.105114E-05	
   -1.190280E-02	    4.300999E-04	    1.323324E-02	   -1.000000E+00	    1.600000E-03	    1.600000E-03	    8.010000E+02	    1.891374E-10	    4.646588E-07	    1.967838E+06	    9.664319E+05	    1.000000E+00	    1.139170E-05	    1.827884E-04	
   -1.193834E-02	    6.472836E-04	    1.969675E-02	   -1.000000E+00	    1.600000E-03	    1.600000E-03	    8.010000E+02	    1.492648E-09	    1.618339E-06	    8.684498E+05	    9.442010E+05	    1.000000E+00	    1.714813E-05	    1.409360E-03	
   -1.198165E-02	    9.539958E-04	    2.858901E-02	   -1.000000E+00	    1.600002E-03	    1.600000E-03	    8.010000E+02	    1.065350E-08	    5.314047E-06	    3.995451E+05	    9.141874E+05	    1.000000E+00	    2.528218E-05	    9.739292E-03	
   -1.202804E-02	    1.374206E-03	    4.054240E-02	   -1.000000E+00	    1.600012E-03	    1.600000E-03	    8.010000E+02	    6.822146E-08	    1.638554E-05	    1.923854E+05	    8.838739E+05	    1.000000E+00	    3.643508E-05	    6.029917E-02	
   -1.206675E-02	    1.931698E-03	    5.615798E-02	   -1.000000E+00	    1.600070E-03	    1.600000E-03	    8.010000E+02	    3.878454E-07	    4.708548E-05	    9.724356E+04	    8.550620E+05	    1.000000E+00	    5.124749E-05	    3.316318E-01	
   -1.207862E-02	    2.646479E-03	    7.586161E-02	   -1.000000E+00	    1.600348E-03	    1.600000E-03	    8.010000E+02	    1.935253E-06	    1.249424E-04	    5.171360E+04	    8.254655E+05	    1.000000E+00	    7.026561E-05	    1.597484E+00	
   -1.203475E-02	    3.529906E-03	    9.989320E-02	   -1.000000E+00	    1.601523E-03	    1.600000E-03	    8.010000E+02	    8.459005E-06	    3.060496E-04	    2.898045E+04	    7.911352E+05	    1.000000E+00	    9.381228E-05	    6.692217E+00	
   -1.189754E-02	    4.579008E-03	    1.277359E-01	   -1.000000E+00	    1.605722E-03	    1.600000E-03	    8.010000E+02	    3.178612E-05	    6.800478E-04	    1.713698E+04	    7.390372E+05	    1.000000E+00	    1.218345E-04	    2.349113E+01	
   -1.162527E-02	    5.771354E-03	    1.587723E-01	   -1.000000E+00	    1.618434E-03	    1.600000E-03	    8.010000E+02	    1.024096E-04	    1.370624E-03	    1.072038E+04	    6.693742E+05	    1.000000E+00	    1.537619E-04	    6.855032E+01	
   -1.118046E-02	    7.062765E-03	    1.910818E-01	   -1.000000E+00	    1.649653E-03	    1.600000E-03	    8.010000E+02	    2.758522E-04	    2.456346E-03	    7.132564E+03	    5.881315E+05	    1.000000E+00	    1.884375E-04	    1.622374E+02	
   -1.054031E-02	    8.390297E-03	    2.231478E-01	   -1.000000E+00	    1.711576E-03	    1.600000E-03	    8.010000E+02	    6.198686E-04	    3.928313E-03	    5.076203E+03	    5.111086E+05	    1.000000E+00	    2.241872E-04	    3.168202E+02	
   -9.705328E-03	    9.681443E-03	    2.517454E-01	   -1.000000E+00	    1.804383E-03	    1.600000E-03	    8.010000E+02	    1.135459E-03	    5.489283E-03	    3.872368E+03	    4.462752E+05	    1.000000E+00	    2.590590E-04	    5.067272E+02	
   -8.702144E-03	    1.086745E-02	    2.755292E-01	   -1.000000E+00	    1.919451E-03	    1.600000E-03	    8.010000E+02	    1.774727E-03	    6.971168E-03	    3.146347E+03	    3.939694E+05	    1.000000E+00	    2.911804E-04	    6.991881E+02	
   -7.578546E-03	    1.189604E-02	    2.946853E-01	   -1.000000E+00	    2.044827E-03	    1.600000E-03	    8.010000E+02	    2.471263E-03	    8.314797E-03	    2.695039E+03	    3.525679E+05	    1.000000E+00	    3.191077E-04	    8.712882E+02	
   -6.392904E-03	    1.273880E-02	    3.093982E-01	   -1.000000E+00	    2.164228E-03	    1.600000E-03	    8.010000E+02	    3.134597E-03	    9.423290E-03	    2.407982E+03	    3.213612E+05	    1.000000E+00	    3.420380E-04	    1.007338E+03	