Title="Fields"
Variables="X""Y""Velocity""Phi""Effective Viscosity""Dynamic Viscosity""Density"
Zone I=52 J=52 F=POINT
   -1.214864E-02	    6.022429E-05	    0.000000E+00	    0.000000E+00	    1.000000E-03	    1.000000E-03	    1.000000E+03	
   -1.214840E-02	    7.587057E-05	    0.000000E+00	    0.000000E+00	    1.000000E-03	    1.000000E-03	    1.000000E+03	
   -1.214760E-02	    1.201161E-04	    0.000000E+00	    0.000000E+00	    1.000000E-03	    1.000000E-03	    1.000000E+03	
   -1.214604E-02	    1.887791E-04	    0.000000E+00	    0.000000E+00	    1.000000E-03	    1.000000E-03	    1.000000E+03	
   -1.214292E-02	    2.931942E-04	    0.000000E+00	    0.000000E+00	    1.000000E-03	    1.000000E-03	    1.000000E+03	
   -1.213663E-02	    4.481477E-04	    0.000000E+00	    0.000000E+00	    1.000000E-03	    1.000000E-03	    1.000000E+03	
   -1.212407E-02	    6.717409E-04	    0.000000E+00	    0.000000E+00	    1.000000E-03	    1.000000E-03	    1.000000E+03	
   -1.209955E-02	    9.844683E-04	    0.000000E+00	    0.000000E+00	    1.000000E-03	    1.000000E-03	    1.000000E+03	
   -1.205343E-02	    1.407246E-03	    0.000000E+00	    0.000000E+00	    1.000000E-03	    1.000000E-03	    1.000000E+03	
   -1.197066E-02	    1.958256E-03	    0.000000E+00	    0.000000E+00	    1.000000E-03	    1.000000E-03	    1.000000E+03	
   -1.182995E-02	    2.648726E-03	    0.000000E+00	    0.000000E+00	    1.000000E-03	    1.000000E-03	    1.000000E+03	
   -1.160448E-02	    3.478200E-03	    0.000000E+00	    0.000000E+00	    1.000000E-03	    1.000000E-03	    1.000000E+03	
   -1.126504E-02	    4.430468E-03	    0.000000E+00	    0.000000E+00	    1.000000E-03	    1.000000E-03	    1.000000E+03	
   -1.078591E-02	    5.471849E-03	    0.000000E+00	    0.000000E+00	    1.000000E-03	    1.000000E-03	    1.000000E+03	
   -1.015212E-02	    6.553513E-03	    0.000000E+00	    0.000000E+00	    1.000000E-03	    1.000000E-03	    1.000000E+03	
   -9.365629E-03	    7.618398E-03	    0.000000E+00	    0.000000E+00	    1.000000E-03	    1.000000E-03	    1.000000E+03	
   -8.447545E-03	    8.611188E-03	    0.000000E+00	    0.000000E+00	    1.000000E-03	    1.000000E-03	    1.000000E+03	
   -7.434862E-03	    9.488053E-03	    0.000000E+00	    0.000000E+00	    1.000000E-03	    1.000000E-03	    1.000000E+03	
   -6.373090E-03	    1.022279E-02	    0.000000E+00	    0.000000E+00	    1.000000E-03	    1.000000E-03	    1.000000E+03	
   -5.307665E-03	    1.080778E-02	    0.000000E+00	    0.000000E+00	    1.000000E-03	    1.000000E-03	    1.000000E+03	
   -4.277158E-03	    1.125067E-02	    0.000000E+00	    0.000000E+00	    1.000000E-03	    1.000000E-03	    1.000000E+03	
   -3.309737E-03	    1.156892E-02	    0.000000E+00	    0.000000E+00	    1.000000E-03	    1.000000E-03	    1.000000E+03	
   -2.422706E-03	    1.178441E-02	    0.000000E+00	    0.000000E+00	    1.000000E-03	    1.000000E-03	    1.000000E+03	
   -1.624034E-03	    1.191938E-02	    0.000000E+00	    0.000000E+00	    1.000000E-03	    1.000000E-03	    1.000000E+03	
   -9.147030E-04	    1.199393E-02	    0.000000E+00	    0.000000E+00	    1.000000E-03	    1.000000E-03	    1.000000E+03	
   -2.910594E-04	    1.202492E-02	    0.000000E+00	    0.000000E+00	    1.000000E-03	    1.000000E-03	    1.000000E+03	
    2.910594E-04	    1.202492E-02	    0.000000E+00	    0.000000E+00	    1.000000E-03	    1.000000E-03	    1.000000E+03	
    9.147030E-04	    1.199393E-02	    0.000000E+00	    0.000000E+00	    1.000000E-03	    1.000000E-03	    1.000000E+03	
    1.624034E-03	    1.191938E-02	    0.000000E+00	    0.000000E+00	    1.000000E-03	    1.000000E-03	    1.000000E+03	
    2.422706E-03	    1.178441E-02	    0.000000E+00	    0.000000E+00	    1.000000E-03	    1.000000E-03	    1.000000E+03	
    3.309737E-03	    1.156892E-02	    0.000000E+00	    0.000000E+00	    1.000000E-03	    1.000000E-03	    1.000000E+03	
    4.277158E-03	    1.125067E-02	    0.000000E+00	    0.000000E+00	    1.000000E-03	    1.000000E-03	    1.000000E+03	
    5.307665E-03	    1.080778E-02	    0.000000E+00	    0.000000E+00	    1.000000E-03	    1.000000E-03	    1.000000E+03	
    6.373090E-03	    1.022279E-02	    0.000000E+00	    0.000000E+00	    1.000000E-03	    1.000000E-03	    1.000000E+03	
    7.434862E-03	    9.488053E-03	    0.000000E+00	    0.000000E+00	    1.000000E-03	    1.000000E-03	    1.000000E+03	
    8.447545E-03	    8.611188E-03	    0.000000E+00	    0.000000E+00	    1.000000E-03	    1.000000E-03	    1.000000E+03	
    9.365629E-03	    7.618398E-03	    0.000000E+00	    0.000000E+00	    1.000000E-03	    1.000000E-03	    1.000000E+03	
    1.015212E-02	    6.553513E-03	    0.000000E+00	    0.000000E+00	    1.000000E-03	    1.000000E-03	    1.000000E+03	
    1.078591E-02	    5.471849E-03	    0.000000E+00	    0.000000E+00	    1.000000E-03	    1.000000E-03	    1.000000E+03	
    1.126504E-02	    4.430468E-03	    0.000000E+00	    0.000000E+00	    1.000000E-03	    1.000000E-03	    1.000000E+03	
    1.160448E-02	    3.478200E-03	    0.000000E+00	    0.000000E+00	    1.000000E-03	    1.000000E-03	    1.000000E+03	
    1.182995E-02	    2.648726E-03	    0.000000E+00	    0.000000E+00	    1.000000E-03	    1.000000E-03	    1.000000E+03	
    1.197066E-02	    1.958256E-03	    0.000000E+00	    0.000000E+00	    1.000000E-03	    1.000000E-03	    1.000000E+03	
    1.205343E-02	    1.407246E-03	    0.000000E+00	    0.000000E+00	    1.000000E-03	    1.000000E-03	    1.000000E+03	
    1.209955E-02	    9.844683E-04	    0.000000E+00	    0.000000E+00	    1.000000E-03	    1.000000E-03	    1.000000E+03	
    1.212407E-02	    6.717409E-04	    0.000000E+00	    0.000000E+00	    1.000000E-03	    1.000000E-03	    1.000000E+03	
    1.213663E-02	    4.481477E-04	    0.000000E+00	    0.000000E+00	    1.000000E-03	    1.000000E-03	    1.000000E+03	
    1.214292E-02	    2.931942E-04	    0.000000E+00	    0.000000E+00	    1.000000E-03	    1.000000E-03	    1.000000E+03	
    1.214604E-02	    1.887791E-04	    0.000000E+00	    0.000000E+00	    1.000000E-03	    1.000000E-03	    1.000000E+03	
    1.214760E-02	    1.201161E-04	    0.000000E+00	    0.000000E+00	    1.000000E-03	    1.000000E-03	    1.000000E+03	
    1.214840E-02	    7.587057E-05	    0.000000E+00	    0.000000E+00	    1.000000E-03	    1.000000E-03	    1.000000E+03	
    1.214864E-02	    6.022429E-05	    0.000000E+00	    0.000000E+00	    1.000000E-03	    1.000000E-03	    1.000000E+03	
   -1.214823E-02	    6.021682E-05	    0.000000E+00	    0.000000E+00	    1.000000E-03	    1.000000E-03	    1.000000E+03	
   -1.214788E-02	    7.586050E-05	    4.153591E-05	   -1.000000E+00	    1.000000E-03	    1.600000E-03	    8.010000E+02	
   -1.214678E-02	    1.200972E-04	    1.325620E-04	   -1.000000E+00	    1.000000E-03	    1.600000E-03	    8.010000E+02	
   -1.214476E-02	    1.887421E-04	    2.495211E-04	   -1.000000E+00	    1.000000E-03	    1.600000E-03	    8.010000E+02	
   -1.214094E-02	    2.931199E-04	    4.126549E-04	   -1.000000E+00	    1.000000E-03	    1.600000E-03	    8.010000E+02	
   -1.213361E-02	    4.479954E-04	    6.459475E-04	   -1.000000E+00	    1.000000E-03	    1.600000E-03	    8.010000E+02	
   -1.211954E-02	    6.714291E-04	    9.774553E-04	   -1.000000E+00	    1.000000E-03	    1.600000E-03	    8.010000E+02	
   -1.209293E-02	    9.838402E-04	    1.438295E-03	   -1.000000E+00	    1.000000E-03	    1.600000E-03	    8.010000E+02	
   -1.204400E-02	    1.406018E-03	    2.059937E-03	   -1.000000E+00	    1.000000E-03	    1.600000E-03	    8.010000E+02	
   -1.195763E-02	    1.955947E-03	    2.869626E-03	   -1.000000E+00	    1.000000E-03	    1.600000E-03	    8.010000E+02	
   -1.181254E-02	    2.644588E-03	    3.884176E-03	   -1.000000E+00	    1.000000E-03	    1.600000E-03	    8.010000E+02	
   -1.158206E-02	    3.471166E-03	    5.102993E-03	   -1.000000E+00	    1.000000E-03	    1.600000E-03	    8.010000E+02	
   -1.123734E-02	    4.419171E-03	    6.502114E-03	   -1.000000E+00	    1.000000E-03	    1.600000E-03	    8.010000E+02	
   -1.075317E-02	    5.454743E-03	    8.031756E-03	   -1.000000E+00	    1.000000E-03	    1.600000E-03	    8.010000E+02	
   -1.011522E-02	    6.529108E-03	    9.619855E-03	   -1.000000E+00	    1.000000E-03	    1.600000E-03	    8.010000E+02	
   -9.326090E-03	    7.585548E-03	    1.118235E-02	   -1.000000E+00	    1.000000E-03	    1.600000E-03	    8.010000E+02	
   -8.407256E-03	    8.569342E-03	    1.263793E-02	   -1.000000E+00	    1.000000E-03	    1.600000E-03	    8.010000E+02	
   -7.395811E-03	    9.437363E-03	    1.392243E-02	   -1.000000E+00	    1.000000E-03	    1.600000E-03	    8.010000E+02	
   -6.337039E-03	    1.016404E-02	    1.499768E-02	   -1.000000E+00	    1.000000E-03	    1.600000E-03	    8.010000E+02	
   -5.275932E-03	    1.074219E-02	    1.585293E-02	   -1.000000E+00	    1.000000E-03	    1.600000E-03	    8.010000E+02	
   -4.250545E-03	    1.117966E-02	    1.649972E-02	   -1.000000E+00	    1.000000E-03	    1.600000E-03	    8.010000E+02	
   -3.288564E-03	    1.149387E-02	    1.696392E-02	   -1.000000E+00	    1.000000E-03	    1.600000E-03	    8.010000E+02	
   -2.406921E-03	    1.170657E-02	    1.727774E-02	   -1.000000E+00	    1.000000E-03	    1.600000E-03	    8.010000E+02	
   -1.613332E-03	    1.183976E-02	    1.747383E-02	   -1.000000E+00	    1.000000E-03	    1.600000E-03	    8.010000E+02	
   -9.086382E-04	    1.191332E-02	    1.758163E-02	   -1.000000E+00	    1.000000E-03	    1.600000E-03	    8.010000E+02	
   -2.891246E-04	    1.194390E-02	    1.762578E-02	   -1.000000E+00	    1.000000E-03	    1.600000E-03	    8.010000E+02	
    2.891246E-04	    1.194390E-02	    1.762578E-02	   -1.000000E+00	    1.000000E-03	    1.600000E-03	    8.010000E+02	
    9.086382E-04	    1.191332E-02	    1.758163E-02	   -1.000000E+00	    1.000000E-03	    1.600000E-03	    8.010000E+02	
    1.613332E-03	    1.183976E-02	    1.747383E-02	   -1.000000E+00	    1.000000E-03	    1.600000E-03	    8.010000E+02	
    2.406921E-03	    1.170657E-02	    1.727774E-02	   -1.000000E+00	    1.000000E-03	    1.600000E-03	    8.010000E+02	
    3.288564E-03	    1.149387E-02	    1.696392E-02	   -1.000000E+00	    1.000000E-03	    1.600000E-03	    8.010000E+02	
    4.250545E-03	    1.117966E-02	    1.649972E-02	   -1.000000E+00	    1.000000E-03	    1.600000E-03	    8.010000E+02	
    5.275932E-03	    1.074219E-02	    1.585293E-02	   -1.000000E+00	    1.000000E-03	    1.600000E-03	    8.010000E+02	
    6.337039E-03	    1.016404E-02	    1.499768E-02	   -1.000000E+00	    1.000000E-03	    1.600000E-03	    8.010000E+02	
    7.395811E-03	    9.437363E-03	    1.392243E-02	   -1.000000E+00	    1.000000E-03	    1.600000E-03	    8.010000E+02	
    8.407256E-03	    8.569342E-03	    1.263793E-02	   -1.000000E+00	    1.000000E-03	    1.600000E-03	    8.010000E+02	
    9.326090E-03	    7.585548E-03	    1.118235E-02	   -1.000000E+00	    1.000000E-03	    1.600000E-03	    8.010000E+02	
    1.011522E-02	    6.529108E-03	    9.619855E-03	   -1.000000E+00	    1.000000E-03	    1.600000E-03	    8.010000E+02	
    1.075317E-02	    5.454743E-03	    8.031756E-03	   -1.000000E+00	    1.000000E-03	    1.600000E-03	    8.010000E+02	
    1.123734E-02	    4.419171E-03	    6.502114E-03	   -1.000000E+00	    1.000000E-03	    1.600000E-03	    8.010000E+02	
    1.158206E-02	    3.471166E-03	    5.102993E-03	   -1.000000E+00	    1.000000E-03	    1.600000E-03	    8.010000E+02	
    1.181254E-02	    2.644588E-03	    3.884176E-03	   -1.000000E+00	    1.000000E-03	    1.600000E-03	    8.010000E+02	
    1.195763E-02	    1.955947E-03	    2.869626E-03	   -1.000000E+00	    1.000000E-03	    1.600000E-03	    8.010000E+02	
    1.204400E-02	    1.406018E-03	    2.059937E-03	   -1.000000E+00	    1.000000E-03	    1.600000E-03	    8.010000E+02	
    1.209293E-02	    9.838402E-04	    1.438295E-03	   -1.000000E+00	    1.000000E-03	    1.600000E-03	    8.010000E+02	
    1.211954E-02	    6.714291E-04	    9.774553E-04	   -1.000000E+00	    1.000000E-03	    1.600000E-03	    8.010000E+02	
    1.213361E-02	    4.479954E-04	    6.459475E-04	   -1.000000E+00	    1.000000E-03	    1.600000E-03	    8.010000E+02	
    1.214094E-02	    2.931199E-04	    4.126549E-04	   -1.000000E+00	    1.000000E-03	    1.600000E-03	    8.010000E+02	
    1.214476E-02	    1.887421E-04	    2.495211E-04	   -1.000000E+00	    1.000000E-03	    1.600000E-03	    8.010000E+02	
    1.214678E-02	    1.200972E-04	    1.325620E-04	   -1.000000E+00	    1.000000E-03	    1.600000E-03	    8.010000E+02	
    1.214788E-02	    7.586050E-05	    4.153591E-05	   -1.000000E+00	    1.000000E-03	    1.600000E-03	    8.010000E+02	
    1.214823E-02	    6.021682E-05	    0.000000E+00	    0.000000E+00	    1.000000E-03	    1.000000E-03	    1.000000E+03	
   -1.214729E-02	    6.018897E-05	    0.000000E+00	    0.000000E+00	    1.000000E-03	    1.000000E-03	    1.000000E+03	
   -1.214670E-02	    7.582390E-05	    1.376132E-04	   -1.000000E+00	    1.000000E-03	    1.600000E-03	    8.010000E+02	
   -1.214491E-02	    1.200324E-04	    4.392216E-04	   -1.000000E+00	    1.000000E-03	    1.600000E-03	    8.010000E+02	
   -1.214181E-02	    1.886237E-04	    8.266815E-04	   -1.000000E+00	    1.000000E-03	    1.600000E-03	    8.010000E+02	
   -1.213636E-02	    2.928965E-04	    1.366951E-03	   -1.000000E+00	    1.000000E-03	    1.600000E-03	    8.010000E+02	
   -1.212661E-02	    4.475648E-04	    2.139250E-03	   -1.000000E+00	    1.000000E-03	    1.600000E-03	    8.010000E+02	
   -1.210907E-02	    6.705909E-04	    3.236026E-03	   -1.000000E+00	    1.000000E-03	    1.600000E-03	    8.010000E+02	
   -1.207762E-02	    9.822171E-04	    4.759410E-03	   -1.000000E+00	    1.000000E-03	    1.600000E-03	    8.010000E+02	
   -1.202223E-02	    1.402936E-03	    6.811999E-03	   -1.000000E+00	    1.000000E-03	    1.600000E-03	    8.010000E+02	
   -1.192759E-02	    1.950282E-03	    9.481466E-03	   -1.000000E+00	    1.000000E-03	    1.600000E-03	    8.010000E+02	
   -1.177245E-02	    2.634597E-03	    1.281991E-02	   -1.000000E+00	    1.000000E-03	    1.600000E-03	    8.010000E+02	
   -1.153052E-02	    3.454389E-03	    1.682111E-02	   -1.000000E+00	    1.000000E-03	    1.600000E-03	    8.010000E+02	
   -1.117375E-02	    4.392473E-03	    2.140161E-02	   -1.000000E+00	    1.000000E-03	    1.600000E-03	    8.010000E+02	
   -1.067816E-02	    5.414609E-03	    2.639403E-02	   -1.000000E+00	    1.000000E-03	    1.600000E-03	    8.010000E+02	
   -1.003088E-02	    6.472176E-03	    3.156031E-02	   -1.000000E+00	    1.000000E-03	    1.600000E-03	    8.010000E+02	
   -9.235868E-03	    7.509274E-03	    3.662649E-02	   -1.000000E+00	    1.000000E-03	    1.600000E-03	    8.010000E+02	
   -8.315490E-03	    8.472545E-03	    4.133109E-02	   -1.000000E+00	    1.000000E-03	    1.600000E-03	    8.010000E+02	
   -7.307007E-03	    9.320456E-03	    4.547072E-02	   -1.000000E+00	    1.000000E-03	    1.600000E-03	    8.010000E+02	
   -6.255164E-03	    1.002886E-02	    4.892741E-02	   -1.000000E+00	    1.000000E-03	    1.600000E-03	    8.010000E+02	
   -5.203943E-03	    1.059154E-02	    5.167117E-02	   -1.000000E+00	    1.000000E-03	    1.600000E-03	    8.010000E+02	
   -4.190218E-03	    1.101674E-02	    5.374287E-02	   -1.000000E+00	    1.000000E-03	    1.600000E-03	    8.010000E+02	
   -3.240598E-03	    1.132187E-02	    5.522790E-02	   -1.000000E+00	    1.000000E-03	    1.600000E-03	    8.010000E+02	
   -2.371174E-03	    1.152827E-02	    5.623099E-02	   -1.000000E+00	    1.000000E-03	    1.600000E-03	    8.010000E+02	
   -1.589103E-03	    1.165746E-02	    5.685736E-02	   -1.000000E+00	    1.000000E-03	    1.600000E-03	    8.010000E+02	
   -8.949086E-04	    1.172880E-02	    5.720154E-02	   -1.000000E+00	    1.000000E-03	    1.600000E-03	    8.010000E+02	
   -2.847449E-04	    1.175845E-02	    5.734242E-02	   -1.000000E+00	    1.000000E-03	    1.600000E-03	    8.010000E+02	
    2.847449E-04	    1.175845E-02	    5.734242E-02	   -1.000000E+00	    1.000000E-03	    1.600000E-03	    8.010000E+02	
    8.949086E-04	    1.172880E-02	    5.720154E-02	   -1.000000E+00	    1.000000E-03	    1.600000E-03	    8.010000E+02	
    1.589103E-03	    1.165746E-02	    5.685736E-02	   -1.000000E+00	    1.000000E-03	    1.600000E-03	    8.010000E+02	
    2.371174E-03	    1.152827E-02	    5.623099E-02	   -1.000000E+00	    1.000000E-03	    1.600000E-03	    8.010000E+02	
    3.240598E-03	    1.132187E-02	    5.522790E-02	   -1.000000E+00	    1.000000E-03	    1.600000E-03	    8.010000E+02	
    4.190218E-03	    1.101674E-02	    5.374287E-02	   -1.000000E+00	    1.000000E-03	    1.600000E-03	    8.010000E+02	
    5.203943E-03	    1.059154E-02	    5.167117E-02	   -1.000000E+00	    1.000000E-03	    1.600000E-03	    8.010000E+02	
    6.255164E-03	    1.002886E-02	    4.892741E-02	   -1.000000E+00	    1.000000E-03	    1.600000E-03	    8.010000E+02	
    7.307007E-03	    9.320456E-03	    4.547072E-02	   -1.000000E+00	    1.000000E-03	    1.600000E-03	    8.010000E+02	
    8.315490E-03	    8.472545E-03	    4.133109E-02	   -1.000000E+00	    1.000000E-03	    1.600000E-03	    8.010000E+02	
    9.235868E-03	    7.509274E-03	    3.662649E-02	   -1.000000E+00	    1.000000E-03	    1.600000E-03	    8.010000E+02	
    1.003088E-02	    6.472176E-03	    3.156031E-02	   -1.000000E+00	    1.000000E-03	    1.600000E-03	    8.010000E+02	
    1.067816E-02	    5.414609E-03	    2.639403E-02	   -1.000000E+00	    1.000000E-03	    1.600000E-03	    8.010000E+02	
    1.117375E-02	    4.392473E-03	    2.140161E-02	   -1.000000E+00	    1.000000E-03	    1.600000E-03	    8.010000E+02	
    1.153052E-02	    3.454389E-03	    1.682111E-02	   -1.000000E+00	    1.000000E-03	    1.600000E-03	    8.010000E+02	
    1.177245E-02	    2.634597E-03	    1.281991E-02	   -1.000000E+00	    1.000000E-03	    1.600000E-03	    8.010000E+02	
    1.192759E-02	    1.950282E-03	    9.481466E-03	   -1.000000E+00	    1.000000E-03	    1.600000E-03	    8.010000E+02	
    1.202223E-02	    1.402936E-03	    6.811999E-03	   -1.000000E+00	    1.000000E-03	    1.600000E-03	    8.010000E+02	
    1.207762E-02	    9.822171E-04	    4.759410E-03	   -1.000000E+00	    1.000000E-03	    1.600000E-03	    8.010000E+02	
    1.210907E-02	    6.705909E-04	    3.236026E-03	   -1.000000E+00	    1.000000E-03	    1.600000E-03	    8.010000E+02	
    1.212661E-02	    4.475648E-04	    2.139250E-03	   -1.000000E+00	    1.000000E-03	    1.600000E-03	    8.010000E+02	
    1.213636E-02	    2.928965E-04	    1.366951E-03	   -1.000000E+00	    1.000000E-03	    1.600000E-03	    8.010000E+02	
    1.214181E-02	    1.886237E-04	    8.266815E-04	   -1.000000E+00	    1.000000E-03	    1.600000E-03	    8.010000E+02	
    1.214491E-02	    1.200324E-04	    4.392216E-04	   -1.000000E+00	    1.000000E-03	    1.600000E-03	    8.010000E+02	
    1.214670E-02	    7.582390E-05	    1.376132E-04	   -1.000000E+00	    1.000000E-03	    1.600000E-03	    8.010000E+02	
    1.214729E-02	    6.018897E-05	    0.000000E+00	    0.000000E+00	    1.000000E-03	    1.000000E-03	    1.000000E+03	
   -1.214606E-02	    6.013024E-05	    0.000000E+00	    0.000000E+00	    1.000000E-03	    1.000000E-03	    1.000000E+03	
   -1.214514E-02	    7.574790E-05	    2.633128E-04	   -1.000000E+00	    1.000000E-03	    1.600000E-03	    8.010000E+02	
   -1.214245E-02	    1.199032E-04	    8.404737E-04	   -1.000000E+00	    1.000000E-03	    1.600000E-03	    8.010000E+02	
   -1.213795E-02	    1.883988E-04	    1.581762E-03	   -1.000000E+00	    1.000000E-03	    1.600000E-03	    8.010000E+02	
   -1.213036E-02	    2.924959E-04	    2.615076E-03	   -1.000000E+00	    1.000000E-03	    1.600000E-03	    8.010000E+02	
   -1.211747E-02	    4.468362E-04	    4.091482E-03	   -1.000000E+00	    1.000000E-03	    1.600000E-03	    8.010000E+02	
   -1.209540E-02	    6.692477E-04	    6.186805E-03	   -1.000000E+00	    1.000000E-03	    1.600000E-03	    8.010000E+02	
   -1.205765E-02	    9.797356E-04	    9.094442E-03	   -1.000000E+00	    1.000000E-03	    1.600000E-03	    8.010000E+02	
   -1.199386E-02	    1.398401E-03	    1.300722E-02	   -1.000000E+00	    1.000000E-03	    1.600000E-03	    8.010000E+02	
   -1.188849E-02	    1.942190E-03	    1.808748E-02	   -1.000000E+00	    1.000000E-03	    1.600000E-03	    8.010000E+02	
   -1.172039E-02	    2.620652E-03	    2.442749E-02	   -1.000000E+00	    1.000000E-03	    1.600000E-03	    8.010000E+02	
   -1.146375E-02	    3.431382E-03	    3.200659E-02	   -1.000000E+00	    1.000000E-03	    1.600000E-03	    8.010000E+02	
   -1.109160E-02	    4.356368E-03	    4.065692E-02	   -1.000000E+00	    1.000000E-03	    1.600000E-03	    8.010000E+02	
   -1.058155E-02	    5.360931E-03	    5.005363E-02	   -1.000000E+00	    1.000000E-03	    1.600000E-03	    8.010000E+02	
   -9.922601E-03	    6.396711E-03	    5.974298E-02	   -1.000000E+00	    1.000000E-03	    1.600000E-03	    8.010000E+02	
   -9.120392E-03	    7.408900E-03	    6.921056E-02	   -1.000000E+00	    1.000000E-03	    1.600000E-03	    8.010000E+02	
   -8.198372E-03	    8.345910E-03	    7.797229E-02	   -1.000000E+00	    1.000000E-03	    1.600000E-03	    8.010000E+02	
   -7.193953E-03	    9.168225E-03	    8.565786E-02	   -1.000000E+00	    1.000000E-03	    1.600000E-03	    8.010000E+02	
   -6.151150E-03	    9.853468E-03	    9.205828E-02	   -1.000000E+00	    1.000000E-03	    1.600000E-03	    8.010000E+02	
   -5.112639E-03	    1.039661E-02	    9.712749E-02	   -1.000000E+00	    1.000000E-03	    1.600000E-03	    8.010000E+02	
   -4.113803E-03	    1.080638E-02	    1.009484E-01	   -1.000000E+00	    1.000000E-03	    1.600000E-03	    8.010000E+02	
   -3.179895E-03	    1.110007E-02	    1.036838E-01	   -1.000000E+00	    1.000000E-03	    1.600000E-03	    8.010000E+02	
   -2.325963E-03	    1.129857E-02	    1.055298E-01	   -1.000000E+00	    1.000000E-03	    1.600000E-03	    8.010000E+02	
   -1.558470E-03	    1.142275E-02	    1.066817E-01	   -1.000000E+00	    1.000000E-03	    1.600000E-03	    8.010000E+02	
   -8.775542E-04	    1.149129E-02	    1.073143E-01	   -1.000000E+00	    1.000000E-03	    1.600000E-03	    8.010000E+02	
   -2.792093E-04	    1.151977E-02	    1.075731E-01	   -1.000000E+00	    1.000000E-03	    1.600000E-03	    8.010000E+02	
    2.792093E-04	    1.151977E-02	    1.075731E-01	   -1.000000E+00	    1.000000E-03	    1.600000E-03	    8.010000E+02	
    8.775542E-04	    1.149129E-02	    1.073143E-01	   -1.000000E+00	    1.000000E-03	    1.600000E-03	    8.010000E+02	
    1.558470E-03	    1.142275E-02	    1.066817E-01	   -1.000000E+00	    1.000000E-03	    1.600000E-03	    8.010000E+02	
    2.325963E-03	    1.129857E-02	    1.055298E-01	   -1.000000E+00	    1.000000E-03	    1.600000E-03	    8.010000E+02	
    3.179895E-03	    1.110007E-02	    1.036838E-01	   -1.000000E+00	    1.000000E-03	    1.600000E-03	    8.010000E+02	
    4.113803E-03	    1.080638E-02	    1.009484E-01	   -1.000000E+00	    1.000000E-03	    1.600000E-03	    8.010000E+02	
    5.112639E-03	    1.039661E-02	    9.712749E-02	   -1.000000E+00	    1.000000E-03	    1.600000E-03	    8.010000E+02	
    6.151150E-03	    9.853468E-03	    9.205828E-02	   -1.000000E+00	    1.000000E-03	    1.600000E-03	    8.010000E+02	
    7.193953E-03	    9.168225E-03	    8.565786E-02	   -1.000000E+00	    1.000000E-03	    1.600000E-03	    8.010000E+02	
    8.198372E-03	    8.345910E-03	    7.797229E-02	   -1.000000E+00	    1.000000E-03	    1.600000E-03	    8.010000E+02	
    9.120392E-03	    7.408900E-03	    6.921056E-02	   -1.000000E+00	    1.000000E-03	    1.600000E-03	    8.010000E+02	
    9.922601E-03	    6.396711E-03	    5.974298E-02	   -1.000000E+00	    1.000000E-03	    1.600000E-03	    8.010000E+02	
    1.058155E-02	    5.360931E-03	    5.005363E-02	   -1.000000E+00	    1.000000E-03	    1.600000E-03	    8.010000E+02	
    1.109160E-02	    4.356368E-03	    4.065692E-02	   -1.000000E+00	    1.000000E-03	    1.600000E-03	    8.010000E+02	
    1.146375E-02	    3.431382E-03	    3.200659E-02	   -1.000000E+00	    1.000000E-03	    1.600000E-03	    8.010000E+02	
    1.172039E-02	    2.620652E-03	    2.442749E-02	   -1.000000E+00	    1.000000E-03	    1.600000E-03	    8.010000E+02	
    1.188849E-02	    1.942190E-03	    1.808748E-02	   -1.000000E+00	    1.000000E-03	    1.600000E-03	    8.010000E+02	
    1.199386E-02	    1.398401E-03	    1.300722E-02	   -1.000000E+00	    1.000000E-03	    1.600000E-03	    8.010000E+02	
    1.205765E-02	    9.797356E-04	    9.094442E-03	   -1.000000E+00	    1.000000E-03	    1.600000E-03	    8.010000E+02	
    1.209540E-02	    6.692477E-04	    6.186805E-03	   -1.000000E+00	    1.000000E-03	    1.600000E-03	    8.010000E+02	
    1.211747E-02	    4.468362E-04	    4.091482E-03	   -1.000000E+00	    1.000000E-03	    1.600000E-03	    8.010000E+02	
    1.213036E-02	    2.924959E-04	    2.615076E-03	   -1.000000E+00	    1.000000E-03	    1.600000E-03	    8.010000E+02	
    1.213795E-02	    1.883988E-04	    1.581762E-03	   -1.000000E+00	    1.000000E-03	    1.600000E-03	    8.010000E+02	
    1.214245E-02	    1.199032E-04	    8.404737E-04	   -1.000000E+00	    1.000000E-03	    1.600000E-03	    8.010000E+02	
    1.214514E-02	    7.574790E-05	    2.633128E-04	   -1.000000E+00	    1.000000E-03	    1.600000E-03	    8.010000E+02	
    1.214606E-02	    6.013024E-05	    0.000000E+00	    0.000000E+00	    1.000000E-03	    1.000000E-03	    1.000000E+03	
   -1.214446E-02	    6.001618E-05	    0.000000E+00	    0.000000E+00	    1.000000E-03	    1.000000E-03	    1.000000E+03	
   -1.214313E-02	    7.560164E-05	    4.264148E-04	   -1.000000E+00	    1.000000E-03	    1.600000E-03	    8.010000E+02	
   -1.213926E-02	    1.196601E-04	    1.361185E-03	   -1.000000E+00	    1.000000E-03	    1.600000E-03	    8.010000E+02	
   -1.213294E-02	    1.879886E-04	    2.561454E-03	   -1.000000E+00	    1.000000E-03	    1.600000E-03	    8.010000E+02	
   -1.212260E-02	    2.917926E-04	    4.233882E-03	   -1.000000E+00	    1.000000E-03	    1.600000E-03	    8.010000E+02	
   -1.210562E-02	    4.456112E-04	    6.622056E-03	   -1.000000E+00	    1.000000E-03	    1.600000E-03	    8.010000E+02	
   -1.207769E-02	    6.670883E-04	    1.000852E-02	   -1.000000E+00	    1.000000E-03	    1.600000E-03	    8.010000E+02	
   -1.203183E-02	    9.759115E-04	    1.470236E-02	   -1.000000E+00	    1.000000E-03	    1.600000E-03	    8.010000E+02	
   -1.195723E-02	    1.391670E-03	    2.100874E-02	   -1.000000E+00	    1.000000E-03	    1.600000E-03	    8.010000E+02	
   -1.183812E-02	    1.930547E-03	    2.917966E-02	   -1.000000E+00	    1.000000E-03	    1.600000E-03	    8.010000E+02	
   -1.165348E-02	    2.601093E-03	    3.934966E-02	   -1.000000E+00	    1.000000E-03	    1.600000E-03	    8.010000E+02	
   -1.137822E-02	    3.399768E-03	    5.146802E-02	   -1.000000E+00	    1.000000E-03	    1.600000E-03	    8.010000E+02	
   -1.098675E-02	    4.307569E-03	    6.524721E-02	   -1.000000E+00	    1.000000E-03	    1.600000E-03	    8.010000E+02	
   -1.045873E-02	    5.289349E-03	    8.015275E-02	   -1.000000E+00	    1.000000E-03	    1.600000E-03	    8.010000E+02	
   -9.785477E-03	    6.297176E-03	    9.545460E-02	   -1.000000E+00	    1.000000E-03	    1.600000E-03	    8.010000E+02	
   -8.974728E-03	    7.277701E-03	    1.103398E-01	   -1.000000E+00	    1.000000E-03	    1.600000E-03	    8.010000E+02	
   -8.051172E-03	    8.181592E-03	    1.240571E-01	   -1.000000E+00	    1.000000E-03	    1.600000E-03	    8.010000E+02	
   -7.052310E-03	    8.971845E-03	    1.360435E-01	   -1.000000E+00	    1.000000E-03	    1.600000E-03	    8.010000E+02	
   -6.021179E-03	    9.628242E-03	    1.459928E-01	   -1.000000E+00	    1.000000E-03	    1.600000E-03	    8.010000E+02	
   -4.998790E-03	    1.014715E-02	    1.538516E-01	   -1.000000E+00	    1.000000E-03	    1.600000E-03	    8.010000E+02	
   -4.018668E-03	    1.053784E-02	    1.597627E-01	   -1.000000E+00	    1.000000E-03	    1.600000E-03	    8.010000E+02	
   -3.104406E-03	    1.081743E-02	    1.639879E-01	   -1.000000E+00	    1.000000E-03	    1.600000E-03	    8.010000E+02	
   -2.269782E-03	    1.100621E-02	    1.668359E-01	   -1.000000E+00	    1.000000E-03	    1.600000E-03	    8.010000E+02	
   -1.520424E-03	    1.112422E-02	    1.686118E-01	   -1.000000E+00	    1.000000E-03	    1.600000E-03	    8.010000E+02	
   -8.560055E-04	    1.118933E-02	    1.695865E-01	   -1.000000E+00	    1.000000E-03	    1.600000E-03	    8.010000E+02	
   -2.723367E-04	    1.121638E-02	    1.699851E-01	   -1.000000E+00	    1.000000E-03	    1.600000E-03	    8.010000E+02	
    2.723367E-04	    1.121638E-02	    1.699851E-01	   -1.000000E+00	    1.000000E-03	    1.600000E-03	    8.010000E+02	
    8.560055E-04	    1.118933E-02	    1.695865E-01	   -1.000000E+00	    1.000000E-03	    1.600000E-03	    8.010000E+02	
    1.520424E-03	    1.112422E-02	    1.686118E-01	   -1.000000E+00	    1.000000E-03	    1.600000E-03	    8.010000E+02	
    2.269782E-03	    1.100621E-02	    1.668359E-01	   -1.000000E+00	    1.000000E-03	    1.600000E-03	    8.010000E+02	
    3.104406E-03	    1.081743E-02	    1.639879E-01	   -1.000000E+00	    1.000000E-03	    1.600000E-03	    8.010000E+02	
    4.018668E-03	    1.053784E-02	    1.597627E-01	   -1.000000E+00	    1.000000E-03	    1.600000E-03	    8.010000E+02	
    4.998790E-03	    1.014715E-02	    1.538516E-01	   -1.000000E+00	    1.000000E-03	    1.600000E-03	    8.010000E+02	
    6.021179E-03	    9.628242E-03	    1.459928E-01	   -1.000000E+00	    1.000000E-03	    1.600000E-03	    8.010000E+02	
    7.052310E-03	    8.971845E-03	    1.360435E-01	   -1.000000E+00	    1.000000E-03	    1.600000E-03	    8.010000E+02	
    8.051172E-03	    8.181592E-03	    1.240571E-01	   -1.000000E+00	    1.000000E-03	    1.600000E-03	    8.010000E+02	
    8.974728E-03	    7.277701E-03	    1.103398E-01	   -1.000000E+00	    1.000000E-03	    1.600000E-03	    8.010000E+02	
    9.785477E-03	    6.297176E-03	    9.545460E-02	   -1.000000E+00	    1.000000E-03	    1.600000E-03	    8.010000E+02	
    1.045873E-02	    5.289349E-03	    8.015275E-02	   -1.000000E+00	    1.000000E-03	    1.600000E-03	    8.010000E+02	
    1.098675E-02	    4.307569E-03	    6.524721E-02	   -1.000000E+00	    1.000000E-03	    1.600000E-03	    8.010000E+02	
    1.137822E-02	    3.399768E-03	    5.146802E-02	   -1.000000E+00	    1.000000E-03	    1.600000E-03	    8.010000E+02	