Title="Fields"
Variables="X""Y""Velocity""Phi""Effective Viscosity""Dynamic Viscosity""Density""Eddy Viscosity""K""Omega""S""F1SST""distance""GEN"
Zone I=52 J=52 F=POINT
   -1.214871E-02	    6.022484E-05	    0.000000E+00	    0.000000E+00	    1.000000E-03	    1.000000E-03	    1.000000E+03	    0.000000E+00	    0.000000E+00	    6.068878E+08	    0.000000E+00	    1.000000E+00	    0.000000E+00	    0.000000E+00	
   -1.214847E-02	    7.587131E-05	    0.000000E+00	    0.000000E+00	    1.000000E-03	    1.000000E-03	    1.000000E+03	    0.000000E+00	    0.000000E+00	    6.068878E+08	    0.000000E+00	    1.000000E+00	    0.000000E+00	    0.000000E+00	
   -1.214769E-02	    1.201175E-04	    0.000000E+00	    0.000000E+00	    1.000000E-03	    1.000000E-03	    1.000000E+03	    0.000000E+00	    0.000000E+00	    2.421375E+08	    0.000000E+00	    1.000000E+00	    0.000000E+00	    0.000000E+00	
   -1.214615E-02	    1.887816E-04	    0.000000E+00	    0.000000E+00	    1.000000E-03	    1.000000E-03	    1.000000E+03	    0.000000E+00	    0.000000E+00	    9.803288E+07	    0.000000E+00	    1.000000E+00	    0.000000E+00	    0.000000E+00	
   -1.214307E-02	    2.931991E-04	    0.000000E+00	    0.000000E+00	    1.000000E-03	    1.000000E-03	    1.000000E+03	    0.000000E+00	    0.000000E+00	    4.064349E+07	    0.000000E+00	    1.000000E+00	    0.000000E+00	    0.000000E+00	
   -1.213685E-02	    4.481572E-04	    0.000000E+00	    0.000000E+00	    1.000000E-03	    1.000000E-03	    1.000000E+03	    0.000000E+00	    0.000000E+00	    1.739774E+07	    0.000000E+00	    1.000000E+00	    0.000000E+00	    0.000000E+00	
   -1.212437E-02	    6.717598E-04	    0.000000E+00	    0.000000E+00	    1.000000E-03	    1.000000E-03	    1.000000E+03	    0.000000E+00	    0.000000E+00	    7.744254E+06	    0.000000E+00	    1.000000E+00	    0.000000E+00	    0.000000E+00	
   -1.209996E-02	    9.845054E-04	    0.000000E+00	    0.000000E+00	    1.000000E-03	    1.000000E-03	    1.000000E+03	    0.000000E+00	    0.000000E+00	    3.606176E+06	    0.000000E+00	    1.000000E+00	    0.000000E+00	    0.000000E+00	
   -1.205400E-02	    1.407318E-03	    0.000000E+00	    0.000000E+00	    1.000000E-03	    1.000000E-03	    1.000000E+03	    0.000000E+00	    0.000000E+00	    1.765230E+06	    0.000000E+00	    1.000000E+00	    0.000000E+00	    0.000000E+00	
   -1.197143E-02	    1.958389E-03	    0.000000E+00	    0.000000E+00	    1.000000E-03	    1.000000E-03	    1.000000E+03	    0.000000E+00	    0.000000E+00	    9.118449E+05	    0.000000E+00	    1.000000E+00	    0.000000E+00	    0.000000E+00	
   -1.183096E-02	    2.648961E-03	    0.000000E+00	    0.000000E+00	    1.000000E-03	    1.000000E-03	    1.000000E+03	    0.000000E+00	    0.000000E+00	    4.985805E+05	    0.000000E+00	    1.000000E+00	    0.000000E+00	    0.000000E+00	
   -1.160577E-02	    3.478599E-03	    0.000000E+00	    0.000000E+00	    1.000000E-03	    1.000000E-03	    1.000000E+03	    0.000000E+00	    0.000000E+00	    2.892552E+05	    0.000000E+00	    1.000000E+00	    0.000000E+00	    0.000000E+00	
   -1.126663E-02	    4.431107E-03	    0.000000E+00	    0.000000E+00	    1.000000E-03	    1.000000E-03	    1.000000E+03	    0.000000E+00	    0.000000E+00	    1.783623E+05	    0.000000E+00	    1.000000E+00	    0.000000E+00	    0.000000E+00	
   -1.078777E-02	    5.472813E-03	    0.000000E+00	    0.000000E+00	    1.000000E-03	    1.000000E-03	    1.000000E+03	    0.000000E+00	    0.000000E+00	    1.169970E+05	    0.000000E+00	    1.000000E+00	    0.000000E+00	    0.000000E+00	
   -1.015421E-02	    6.554887E-03	    0.000000E+00	    0.000000E+00	    1.000000E-03	    1.000000E-03	    1.000000E+03	    0.000000E+00	    0.000000E+00	    8.161324E+04	    0.000000E+00	    1.000000E+00	    0.000000E+00	    0.000000E+00	
   -9.367866E-03	    7.620245E-03	    0.000000E+00	    0.000000E+00	    1.000000E-03	    1.000000E-03	    1.000000E+03	    0.000000E+00	    0.000000E+00	    6.043195E+04	    0.000000E+00	    1.000000E+00	    0.000000E+00	    0.000000E+00	
   -8.449821E-03	    8.613539E-03	    0.000000E+00	    0.000000E+00	    1.000000E-03	    1.000000E-03	    1.000000E+03	    0.000000E+00	    0.000000E+00	    4.733298E+04	    0.000000E+00	    1.000000E+00	    0.000000E+00	    0.000000E+00	
   -7.437067E-03	    9.490901E-03	    0.000000E+00	    0.000000E+00	    1.000000E-03	    1.000000E-03	    1.000000E+03	    0.000000E+00	    0.000000E+00	    3.901483E+04	    0.000000E+00	    1.000000E+00	    0.000000E+00	    0.000000E+00	
   -6.375124E-03	    1.022609E-02	    0.000000E+00	    0.000000E+00	    1.000000E-03	    1.000000E-03	    1.000000E+03	    0.000000E+00	    0.000000E+00	    3.362957E+04	    0.000000E+00	    1.000000E+00	    0.000000E+00	    0.000000E+00	
   -5.309455E-03	    1.081146E-02	    0.000000E+00	    0.000000E+00	    1.000000E-03	    1.000000E-03	    1.000000E+03	    0.000000E+00	    0.000000E+00	    3.010438E+04	    0.000000E+00	    1.000000E+00	    0.000000E+00	    0.000000E+00	
   -4.278658E-03	    1.125466E-02	    0.000000E+00	    0.000000E+00	    1.000000E-03	    1.000000E-03	    1.000000E+03	    0.000000E+00	    0.000000E+00	    2.779334E+04	    0.000000E+00	    1.000000E+00	    0.000000E+00	    0.000000E+00	
   -3.310930E-03	    1.157314E-02	    0.000000E+00	    0.000000E+00	    1.000000E-03	    1.000000E-03	    1.000000E+03	    0.000000E+00	    0.000000E+00	    2.629426E+04	    0.000000E+00	    1.000000E+00	    0.000000E+00	    0.000000E+00	
   -2.423596E-03	    1.178879E-02	    0.000000E+00	    0.000000E+00	    1.000000E-03	    1.000000E-03	    1.000000E+03	    0.000000E+00	    0.000000E+00	    2.534756E+04	    0.000000E+00	    1.000000E+00	    0.000000E+00	    0.000000E+00	
   -1.624637E-03	    1.192385E-02	    0.000000E+00	    0.000000E+00	    1.000000E-03	    1.000000E-03	    1.000000E+03	    0.000000E+00	    0.000000E+00	    2.478066E+04	    0.000000E+00	    1.000000E+00	    0.000000E+00	    0.000000E+00	
   -9.150450E-04	    1.199845E-02	    0.000000E+00	    0.000000E+00	    1.000000E-03	    1.000000E-03	    1.000000E+03	    0.000000E+00	    0.000000E+00	    2.447572E+04	    0.000000E+00	    1.000000E+00	    0.000000E+00	    0.000000E+00	
   -2.911685E-04	    1.202947E-02	    0.000000E+00	    0.000000E+00	    1.000000E-03	    1.000000E-03	    1.000000E+03	    0.000000E+00	    0.000000E+00	    2.435061E+04	    0.000000E+00	    1.000000E+00	    0.000000E+00	    0.000000E+00	
    2.911685E-04	    1.202947E-02	    0.000000E+00	    0.000000E+00	    1.000000E-03	    1.000000E-03	    1.000000E+03	    0.000000E+00	    0.000000E+00	    2.435061E+04	    0.000000E+00	    1.000000E+00	    0.000000E+00	    0.000000E+00	
    9.150450E-04	    1.199845E-02	    0.000000E+00	    0.000000E+00	    1.000000E-03	    1.000000E-03	    1.000000E+03	    0.000000E+00	    0.000000E+00	    2.447572E+04	    0.000000E+00	    1.000000E+00	    0.000000E+00	    0.000000E+00	
    1.624637E-03	    1.192385E-02	    0.000000E+00	    0.000000E+00	    1.000000E-03	    1.000000E-03	    1.000000E+03	    0.000000E+00	    0.000000E+00	    2.478066E+04	    0.000000E+00	    1.000000E+00	    0.000000E+00	    0.000000E+00	
    2.423596E-03	    1.178879E-02	    0.000000E+00	    0.000000E+00	    1.000000E-03	    1.000000E-03	    1.000000E+03	    0.000000E+00	    0.000000E+00	    2.534756E+04	    0.000000E+00	    1.000000E+00	    0.000000E+00	    0.000000E+00	
    3.310930E-03	    1.157314E-02	    0.000000E+00	    0.000000E+00	    1.000000E-03	    1.000000E-03	    1.000000E+03	    0.000000E+00	    0.000000E+00	    2.629426E+04	    0.000000E+00	    1.000000E+00	    0.000000E+00	    0.000000E+00	
    4.278658E-03	    1.125466E-02	    0.000000E+00	    0.000000E+00	    1.000000E-03	    1.000000E-03	    1.000000E+03	    0.000000E+00	    0.000000E+00	    2.779334E+04	    0.000000E+00	    1.000000E+00	    0.000000E+00	    0.000000E+00	
    5.309455E-03	    1.081146E-02	    0.000000E+00	    0.000000E+00	    1.000000E-03	    1.000000E-03	    1.000000E+03	    0.000000E+00	    0.000000E+00	    3.010438E+04	    0.000000E+00	    1.000000E+00	    0.000000E+00	    0.000000E+00	
    6.375124E-03	    1.022609E-02	    0.000000E+00	    0.000000E+00	    1.000000E-03	    1.000000E-03	    1.000000E+03	    0.000000E+00	    0.000000E+00	    3.362957E+04	    0.000000E+00	    1.000000E+00	    0.000000E+00	    0.000000E+00	
    7.437067E-03	    9.490901E-03	    0.000000E+00	    0.000000E+00	    1.000000E-03	    1.000000E-03	    1.000000E+03	    0.000000E+00	    0.000000E+00	    3.901483E+04	    0.000000E+00	    1.000000E+00	    0.000000E+00	    0.000000E+00	
    8.449821E-03	    8.613539E-03	    0.000000E+00	    0.000000E+00	    1.000000E-03	    1.000000E-03	    1.000000E+03	    0.000000E+00	    0.000000E+00	    4.733298E+04	    0.000000E+00	    1.000000E+00	    0.000000E+00	    0.000000E+00	
    9.367866E-03	    7.620245E-03	    0.000000E+00	    0.000000E+00	    1.000000E-03	    1.000000E-03	    1.000000E+03	    0.000000E+00	    0.000000E+00	    6.043195E+04	    0.000000E+00	    1.000000E+00	    0.000000E+00	    0.000000E+00	
    1.015421E-02	    6.554887E-03	    0.000000E+00	    0.000000E+00	    1.000000E-03	    1.000000E-03	    1.000000E+03	    0.000000E+00	    0.000000E+00	    8.161324E+04	    0.000000E+00	    1.000000E+00	    0.000000E+00	    0.000000E+00	
    1.078777E-02	    5.472813E-03	    0.000000E+00	    0.000000E+00	    1.000000E-03	    1.000000E-03	    1.000000E+03	    0.000000E+00	    0.000000E+00	    1.169970E+05	    0.000000E+00	    1.000000E+00	    0.000000E+00	    0.000000E+00	
    1.126663E-02	    4.431107E-03	    0.000000E+00	    0.000000E+00	    1.000000E-03	    1.000000E-03	    1.000000E+03	    0.000000E+00	    0.000000E+00	    1.783623E+05	    0.000000E+00	    1.000000E+00	    0.000000E+00	    0.000000E+00	
    1.160577E-02	    3.478599E-03	    0.000000E+00	    0.000000E+00	    1.000000E-03	    1.000000E-03	    1.000000E+03	    0.000000E+00	    0.000000E+00	    2.892552E+05	    0.000000E+00	    1.000000E+00	    0.000000E+00	    0.000000E+00	
    1.183096E-02	    2.648961E-03	    0.000000E+00	    0.000000E+00	    1.000000E-03	    1.000000E-03	    1.000000E+03	    0.000000E+00	    0.000000E+00	    4.985805E+05	    0.000000E+00	    1.000000E+00	    0.000000E+00	    0.000000E+00	
    1.197143E-02	    1.958389E-03	    0.000000E+00	    0.000000E+00	    1.000000E-03	    1.000000E-03	    1.000000E+03	    0.000000E+00	    0.000000E+00	    9.118449E+05	    0.000000E+00	    1.000000E+00	    0.000000E+00	    0.000000E+00	
    1.205400E-02	    1.407318E-03	    0.000000E+00	    0.000000E+00	    1.000000E-03	    1.000000E-03	    1.000000E+03	    0.000000E+00	    0.000000E+00	    1.765230E+06	    0.000000E+00	    1.000000E+00	    0.000000E+00	    0.000000E+00	
    1.209996E-02	    9.845054E-04	    0.000000E+00	    0.000000E+00	    1.000000E-03	    1.000000E-03	    1.000000E+03	    0.000000E+00	    0.000000E+00	    3.606176E+06	    0.000000E+00	    1.000000E+00	    0.000000E+00	    0.000000E+00	
    1.212437E-02	    6.717598E-04	    0.000000E+00	    0.000000E+00	    1.000000E-03	    1.000000E-03	    1.000000E+03	    0.000000E+00	    0.000000E+00	    7.744254E+06	    0.000000E+00	    1.000000E+00	    0.000000E+00	    0.000000E+00	
    1.213685E-02	    4.481572E-04	    0.000000E+00	    0.000000E+00	    1.000000E-03	    1.000000E-03	    1.000000E+03	    0.000000E+00	    0.000000E+00	    1.739774E+07	    0.000000E+00	    1.000000E+00	    0.000000E+00	    0.000000E+00	
    1.214307E-02	    2.931991E-04	    0.000000E+00	    0.000000E+00	    1.000000E-03	    1.000000E-03	    1.000000E+03	    0.000000E+00	    0.000000E+00	    4.064349E+07	    0.000000E+00	    1.000000E+00	    0.000000E+00	    0.000000E+00	
    1.214615E-02	    1.887816E-04	    0.000000E+00	    0.000000E+00	    1.000000E-03	    1.000000E-03	    1.000000E+03	    0.000000E+00	    0.000000E+00	    9.803288E+07	    0.000000E+00	    1.000000E+00	    0.000000E+00	    0.000000E+00	
    1.214769E-02	    1.201175E-04	    0.000000E+00	    0.000000E+00	    1.000000E-03	    1.000000E-03	    1.000000E+03	    0.000000E+00	    0.000000E+00	    2.421375E+08	    0.000000E+00	    1.000000E+00	    0.000000E+00	    0.000000E+00	
    1.214847E-02	    7.587131E-05	    0.000000E+00	    0.000000E+00	    1.000000E-03	    1.000000E-03	    1.000000E+03	    0.000000E+00	    0.000000E+00	    6.068878E+08	    0.000000E+00	    1.000000E+00	    0.000000E+00	    0.000000E+00	
    1.214871E-02	    6.022484E-05	    0.000000E+00	    0.000000E+00	    1.000000E-03	    1.000000E-03	    1.000000E+03	    0.000000E+00	    0.000000E+00	    0.000000E+00	    0.000000E+00	    1.000000E+00	    0.000000E+00	    0.000000E+00	
   -1.214830E-02	    6.021752E-05	    0.000000E+00	    0.000000E+00	    1.000000E-03	    1.000000E-03	    1.000000E+03	    0.000000E+00	    0.000000E+00	    0.000000E+00	    0.000000E+00	    1.000000E+00	    0.000000E+00	    0.000000E+00	
   -1.214796E-02	    7.586142E-05	    4.635224E-04	   -1.000000E+00	    1.600000E-03	    1.600000E-03	    8.010000E+02	    2.376789E-14	    1.800804E-08	    6.068878E+08	    5.390372E+05	    1.000000E+00	    5.131384E-07	    5.049294E+02	
   -1.214687E-02	    1.200989E-04	    1.132315E-03	   -1.000000E+00	    1.600000E-03	    1.600000E-03	    8.010000E+02	    1.389581E-13	    4.200621E-08	    2.421375E+08	    1.282397E+06	    1.000000E+00	    8.123772E-07	    7.516272E+02	
   -1.214487E-02	    1.887451E-04	    2.002262E-03	   -1.000000E+00	    1.600000E-03	    1.600000E-03	    8.010000E+02	    1.075560E-12	    1.316358E-07	    9.803288E+07	    1.623280E+06	    1.000000E+00	    1.276741E-06	    9.526279E+02	
   -1.214109E-02	    2.931254E-04	    3.202159E-03	   -1.000000E+00	    1.600000E-03	    1.600000E-03	    8.010000E+02	    6.668509E-12	    3.383664E-07	    4.064349E+07	    1.721106E+06	    1.000000E+00	    1.982865E-06	    1.012610E+03	
   -1.213382E-02	    4.480060E-04	    4.886539E-03	   -1.000000E+00	    1.600000E-03	    1.600000E-03	    8.010000E+02	    3.659115E-11	    7.947604E-07	    1.739774E+07	    1.715368E+06	    1.000000E+00	    3.030696E-06	    1.013746E+03	
   -1.211984E-02	    6.714496E-04	    7.220906E-03	   -1.000000E+00	    1.600000E-03	    1.600000E-03	    8.010000E+02	    1.818763E-10	    1.758422E-06	    7.744254E+06	    1.666943E+06	    1.000000E+00	    4.542542E-06	    9.918635E+02	
   -1.209334E-02	    9.838796E-04	    1.039685E-02	   -1.000000E+00	    1.600000E-03	    1.600000E-03	    8.010000E+02	    8.256279E-10	    3.717053E-06	    3.606176E+06	    1.608637E+06	    1.000000E+00	    6.656796E-06	    9.668687E+02	
   -1.204456E-02	    1.406092E-03	    1.461880E-02	   -1.000000E+00	    1.600001E-03	    1.600000E-03	    8.010000E+02	    3.428237E-09	    7.555088E-06	    1.765230E+06	    1.556057E+06	    1.000000E+00	    9.514549E-06	    9.487504E+02	
   -1.195839E-02	    1.956084E-03	    2.002873E-02	   -1.000000E+00	    1.600002E-03	    1.600000E-03	    8.010000E+02	    1.292314E-08	    1.471148E-05	    9.118449E+05	    1.507823E+06	    1.000000E+00	    1.323819E-05	    9.369612E+02	
   -1.181355E-02	    2.644828E-03	    2.671269E-02	   -1.000000E+00	    1.600008E-03	    1.600000E-03	    8.010000E+02	    4.402461E-08	    2.740302E-05	    4.985805E+05	    1.465311E+06	    1.000000E+00	    1.790283E-05	    9.325452E+02	
   -1.158334E-02	    3.471571E-03	    3.459320E-02	   -1.000000E+00	    1.600024E-03	    1.600000E-03	    8.010000E+02	    1.342756E-07	    4.848929E-05	    2.892552E+05	    1.424110E+06	    1.000000E+00	    2.350447E-05	    9.319864E+02	
   -1.123890E-02	    4.419815E-03	    4.353977E-02	   -1.000000E+00	    1.600066E-03	    1.600000E-03	    8.010000E+02	    3.660570E-07	    8.151156E-05	    1.783623E+05	    1.389033E+06	    1.000000E+00	    2.993253E-05	    9.377902E+02	
   -1.075501E-02	    5.455711E-03	    5.317961E-02	   -1.000000E+00	    1.600160E-03	    1.600000E-03	    8.010000E+02	    8.863312E-07	    1.294608E-04	    1.169970E+05	    1.356337E+06	    1.000000E+00	    3.695866E-05	    9.468445E+02	
   -1.011729E-02	    6.530482E-03	    6.311770E-02	   -1.000000E+00	    1.600343E-03	    1.600000E-03	    8.010000E+02	    1.903543E-06	    1.939504E-04	    8.161324E+04	    1.328481E+06	    1.000000E+00	    4.425277E-05	    9.594281E+02	
   -9.328297E-03	    7.587391E-03	    7.265048E-02	   -1.000000E+00	    1.600648E-03	    1.600000E-03	    8.010000E+02	    3.597757E-06	    2.714351E-04	    6.043195E+04	    1.297038E+06	    1.000000E+00	    5.142993E-05	    9.672446E+02	
   -8.409500E-03	    8.571683E-03	    8.154913E-02	   -1.000000E+00	    1.601095E-03	    1.600000E-03	    8.010000E+02	    6.081870E-06	    3.593921E-04	    4.733298E+04	    1.271771E+06	    1.000000E+00	    5.811779E-05	    9.783227E+02	
   -7.397983E-03	    9.440193E-03	    8.939973E-02	   -1.000000E+00	    1.601664E-03	    1.600000E-03	    8.010000E+02	    9.244396E-06	    4.502728E-04	    3.901483E+04	    1.250194E+06	    1.000000E+00	    6.402202E-05	    9.892636E+02	
   -6.339041E-03	    1.016731E-02	    9.597806E-02	   -1.000000E+00	    1.602301E-03	    1.600000E-03	    8.010000E+02	    1.278056E-05	    5.365850E-04	    3.362957E+04	    1.232144E+06	    1.000000E+00	    6.896727E-05	    9.990837E+02	
   -5.277693E-03	    1.074584E-02	    1.012077E-01	   -1.000000E+00	    1.602930E-03	    1.600000E-03	    8.010000E+02	    1.628030E-05	    6.118706E-04	    3.010438E+04	    1.217415E+06	    1.000000E+00	    7.290338E-05	    1.006804E+03	
   -4.252020E-03	    1.118361E-02	    1.049898E-01	   -1.000000E+00	    1.603468E-03	    1.600000E-03	    8.010000E+02	    1.926535E-05	    6.684750E-04	    2.779334E+04	    1.202368E+06	    1.000000E+00	    7.588263E-05	    1.007631E+03	
   -3.289738E-03	    1.149805E-02	    1.077202E-01	   -1.000000E+00	    1.603901E-03	    1.600000E-03	    8.010000E+02	    2.167492E-05	    7.115181E-04	    2.629426E+04	    1.191989E+06	    1.000000E+00	    7.802303E-05	    1.008884E+03	
   -2.407796E-03	    1.171090E-02	    1.095718E-01	   -1.000000E+00	    1.604219E-03	    1.600000E-03	    8.010000E+02	    2.344033E-05	    7.417668E-04	    2.534756E+04	    1.185065E+06	    1.000000E+00	    7.947213E-05	    1.009950E+03	
   -1.613925E-03	    1.184419E-02	    1.107313E-01	   -1.000000E+00	    1.604429E-03	    1.600000E-03	    8.010000E+02	    2.460322E-05	    7.611535E-04	    2.478066E+04	    1.180737E+06	    1.000000E+00	    8.037965E-05	    1.010674E+03	
   -9.089741E-04	    1.191780E-02	    1.113704E-01	   -1.000000E+00	    1.604548E-03	    1.600000E-03	    8.010000E+02	    2.526441E-05	    7.719910E-04	    2.447572E+04	    1.178322E+06	    1.000000E+00	    8.088089E-05	    1.011069E+03	
   -2.892318E-04	    1.194840E-02	    1.116334E-01	   -1.000000E+00	    1.604598E-03	    1.600000E-03	    8.010000E+02	    2.554220E-05	    7.764896E-04	    2.435061E+04	    1.177265E+06	    1.000000E+00	    8.108928E-05	    1.011188E+03	
    2.892318E-04	    1.194840E-02	    1.116334E-01	   -1.000000E+00	    1.604598E-03	    1.600000E-03	    8.010000E+02	    2.554220E-05	    7.764896E-04	    2.435061E+04	    1.177265E+06	    1.000000E+00	    8.108928E-05	    1.011188E+03	
    9.089741E-04	    1.191780E-02	    1.113704E-01	   -1.000000E+00	    1.604548E-03	    1.600000E-03	    8.010000E+02	    2.526441E-05	    7.719910E-04	    2.447572E+04	    1.178322E+06	    1.000000E+00	    8.088089E-05	    1.011069E+03	
    1.613925E-03	    1.184419E-02	    1.107313E-01	   -1.000000E+00	    1.604429E-03	    1.600000E-03	    8.010000E+02	    2.460322E-05	    7.611535E-04	    2.478066E+04	    1.180737E+06	    1.000000E+00	    8.037965E-05	    1.010674E+03	
    2.407796E-03	    1.171090E-02	    1.095718E-01	   -1.000000E+00	    1.604219E-03	    1.600000E-03	    8.010000E+02	    2.344033E-05	    7.417668E-04	    2.534756E+04	    1.185065E+06	    1.000000E+00	    7.947213E-05	    1.009950E+03	
    3.289738E-03	    1.149805E-02	    1.077202E-01	   -1.000000E+00	    1.603901E-03	    1.600000E-03	    8.010000E+02	    2.167492E-05	    7.115181E-04	    2.629426E+04	    1.191989E+06	    1.000000E+00	    7.802303E-05	    1.008884E+03	
    4.252020E-03	    1.118361E-02	    1.049898E-01	   -1.000000E+00	    1.603468E-03	    1.600000E-03	    8.010000E+02	    1.926535E-05	    6.684750E-04	    2.779334E+04	    1.202368E+06	    1.000000E+00	    7.588263E-05	    1.007631E+03	
    5.277693E-03	    1.074584E-02	    1.012077E-01	   -1.000000E+00	    1.602930E-03	    1.600000E-03	    8.010000E+02	    1.628030E-05	    6.118706E-04	    3.010438E+04	    1.217415E+06	    1.000000E+00	    7.290338E-05	    1.006804E+03	
    6.339041E-03	    1.016731E-02	    9.597806E-02	   -1.000000E+00	    1.602301E-03	    1.600000E-03	    8.010000E+02	    1.278056E-05	    5.365850E-04	    3.362957E+04	    1.232144E+06	    1.000000E+00	    6.896727E-05	    9.990837E+02	
    7.397983E-03	    9.440193E-03	    8.939973E-02	   -1.000000E+00	    1.601664E-03	    1.600000E-03	    8.010000E+02	    9.244396E-06	    4.502728E-04	    3.901483E+04	    1.250194E+06	    1.000000E+00	    6.402202E-05	    9.892636E+02	
    8.409500E-03	    8.571683E-03	    8.154913E-02	   -1.000000E+00	    1.601095E-03	    1.600000E-03	    8.010000E+02	    6.081870E-06	    3.593921E-04	    4.733298E+04	    1.271771E+06	    1.000000E+00	    5.811779E-05	    9.783226E+02	
    9.328297E-03	    7.587391E-03	    7.265048E-02	   -1.000000E+00	    1.600648E-03	    1.600000E-03	    8.010000E+02	    3.597757E-06	    2.714351E-04	    6.043195E+04	    1.297038E+06	    1.000000E+00	    5.142993E-05	    9.672446E+02	
    1.011729E-02	    6.530482E-03	    6.311770E-02	   -1.000000E+00	    1.600343E-03	    1.600000E-03	    8.010000E+02	    1.903543E-06	    1.939504E-04	    8.161324E+04	    1.328481E+06	    1.000000E+00	    4.425277E-05	    9.594281E+02	
    1.075501E-02	    5.455711E-03	    5.317961E-02	   -1.000000E+00	    1.600160E-03	    1.600000E-03	    8.010000E+02	    8.863312E-07	    1.294608E-04	    1.169970E+05	    1.356337E+06	    1.000000E+00	    3.695866E-05	    9.468445E+02	
    1.123890E-02	    4.419815E-03	    4.353977E-02	   -1.000000E+00	    1.600066E-03	    1.600000E-03	    8.010000E+02	    3.660570E-07	    8.151157E-05	    1.783623E+05	    1.389033E+06	    1.000000E+00	    2.993253E-05	    9.377903E+02	
    1.158334E-02	    3.471571E-03	    3.459320E-02	   -1.000000E+00	    1.600024E-03	    1.600000E-03	    8.010000E+02	    1.342756E-07	    4.848929E-05	    2.892552E+05	    1.424110E+06	    1.000000E+00	    2.350447E-05	    9.319865E+02	
    1.181355E-02	    2.644828E-03	    2.671269E-02	   -1.000000E+00	    1.600008E-03	    1.600000E-03	    8.010000E+02	    4.402461E-08	    2.740302E-05	    4.985805E+05	    1.465312E+06	    1.000000E+00	    1.790283E-05	    9.325452E+02	
    1.195839E-02	    1.956084E-03	    2.002874E-02	   -1.000000E+00	    1.600002E-03	    1.600000E-03	    8.010000E+02	    1.292314E-08	    1.471149E-05	    9.118449E+05	    1.507824E+06	    1.000000E+00	    1.323819E-05	    9.369614E+02	
    1.204456E-02	    1.406092E-03	    1.461881E-02	   -1.000000E+00	    1.600001E-03	    1.600000E-03	    8.010000E+02	    3.428238E-09	    7.555090E-06	    1.765230E+06	    1.556059E+06	    1.000000E+00	    9.514549E-06	    9.487507E+02	
    1.209334E-02	    9.838796E-04	    1.039686E-02	   -1.000000E+00	    1.600000E-03	    1.600000E-03	    8.010000E+02	    8.256281E-10	    3.717054E-06	    3.606176E+06	    1.608641E+06	    1.000000E+00	    6.656796E-06	    9.668691E+02	
    1.211984E-02	    6.714496E-04	    7.220896E-03	   -1.000000E+00	    1.600000E-03	    1.600000E-03	    8.010000E+02	    1.818761E-10	    1.758421E-06	    7.744254E+06	    1.666939E+06	    1.000000E+00	    4.542542E-06	    9.918626E+02	
    1.213382E-02	    4.480060E-04	    4.886439E-03	   -1.000000E+00	    1.600000E-03	    1.600000E-03	    8.010000E+02	    3.659078E-11	    7.947524E-07	    1.739774E+07	    1.715298E+06	    1.000000E+00	    3.030696E-06	    1.013734E+03	
    1.214109E-02	    2.931254E-04	    3.202029E-03	   -1.000000E+00	    1.600000E-03	    1.600000E-03	    8.010000E+02	    6.668372E-12	    3.383594E-07	    4.064349E+07	    1.720967E+06	    1.000000E+00	    1.982865E-06	    1.012587E+03	
    1.214487E-02	    1.887451E-04	    2.002188E-03	   -1.000000E+00	    1.600000E-03	    1.600000E-03	    8.010000E+02	    1.075681E-12	    1.316505E-07	    9.803288E+07	    1.623159E+06	    1.000000E+00	    1.276741E-06	    9.526608E+02	
    1.214687E-02	    1.200989E-04	    1.132284E-03	   -1.000000E+00	    1.600000E-03	    1.600000E-03	    8.010000E+02	    1.389564E-13	    4.200568E-08	    2.421375E+08	    1.282327E+06	    1.000000E+00	    8.123772E-07	    7.516153E+02	
    1.214796E-02	    7.586142E-05	    4.635127E-04	   -1.000000E+00	    1.600000E-03	    1.600000E-03	    8.010000E+02	    2.376776E-14	    1.800795E-08	    6.068878E+08	    5.390145E+05	    1.000000E+00	    5.131384E-07	    5.049223E+02	
    1.214830E-02	    6.021752E-05	    0.000000E+00	    0.000000E+00	    1.000000E-03	    1.000000E-03	    1.000000E+03	    0.000000E+00	    0.000000E+00	    6.527596E+05	    0.000000E+00	    1.000000E+00	    0.000000E+00	    0.000000E+00	
   -1.214736E-02	    6.019002E-05	    0.000000E+00	    0.000000E+00	    1.000000E-03	    1.000000E-03	    1.000000E+03	    0.000000E+00	    0.000000E+00	    6.527596E+05	    0.000000E+00	    1.000000E+00	    0.000000E+00	    0.000000E+00	
   -1.214677E-02	    7.582525E-05	    1.133723E-03	   -1.000000E+00	    1.600000E-03	    1.600000E-03	    8.010000E+02	    2.865263E-10	    2.334991E-07	    6.527596E+05	    3.214108E+05	    1.000000E+00	    1.700612E-06	    4.783246E+00	
   -1.214499E-02	    1.200348E-04	    2.769509E-03	   -1.000000E+00	    1.600000E-03	    1.600000E-03	    8.010000E+02	    1.626627E-13	    6.851525E-09	    3.373896E+07	    7.591306E+05	    1.352727E-03	    2.692255E-06	    1.234606E-07	
   -1.214192E-02	    1.886277E-04	    4.896982E-03	   -1.000000E+00	    1.600000E-03	    1.600000E-03	    8.010000E+02	    1.540502E-12	    2.614617E-08	    1.359497E+07	    9.602931E+05	    3.660489E-01	    4.230991E-06	    1.419073E-06	
   -1.213651E-02	    2.929037E-04	    7.830680E-03	   -1.000000E+00	    1.600000E-03	    1.600000E-03	    8.010000E+02	    1.313564E-11	    9.699481E-08	    5.914661E+06	    1.017760E+06	    1.000000E+00	    6.570574E-06	    1.336111E-05	
   -1.212682E-02	    4.475779E-04	    1.194754E-02	   -1.000000E+00	    1.600000E-03	    1.600000E-03	    8.010000E+02	    1.087079E-10	    3.436874E-07	    2.532415E+06	    1.013909E+06	    1.000000E+00	    1.004174E-05	    1.102151E-04	
   -1.210936E-02	    6.706150E-04	    1.765014E-02	   -1.000000E+00	    1.600000E-03	    1.600000E-03	    8.010000E+02	    8.171394E-10	    1.150325E-06	    1.127605E+06	    9.846468E+05	    1.000000E+00	    1.504885E-05	    8.045917E-04	
   -1.207803E-02	    9.822617E-04	    2.540300E-02	   -1.000000E+00	    1.600001E-03	    1.600000E-03	    8.010000E+02	    5.555709E-09	    3.643511E-06	    5.253069E+05	    9.493177E+05	    1.000000E+00	    2.204867E-05	    5.274133E-03	
   -1.202279E-02	    1.403018E-03	    3.569915E-02	   -1.000000E+00	    1.600006E-03	    1.600000E-03	    8.010000E+02	    3.382684E-08	    1.086546E-05	    2.572879E+05	    9.170776E+05	    1.000000E+00	    3.150557E-05	    3.102184E-02	
   -1.192834E-02	    1.950428E-03	    4.887466E-02	   -1.000000E+00	    1.600032E-03	    1.600000E-03	    8.010000E+02	    1.803140E-07	    2.993992E-05	    1.330007E+05	    8.868841E+05	    1.000000E+00	    4.382017E-05	    1.599176E-01	
   -1.177344E-02	    2.634849E-03	    6.512410E-02	   -1.000000E+00	    1.600150E-03	    1.600000E-03	    8.010000E+02	    8.350895E-07	    7.587728E-05	    7.277987E+04	    8.589041E+05	    1.000000E+00	    5.923458E-05	    7.172618E-01	
   -1.153177E-02	    3.454805E-03	    8.423559E-02	   -1.000000E+00	    1.600596E-03	    1.600000E-03	    8.010000E+02	    3.309714E-06	    1.745742E-04	    4.224956E+04	    8.285435E+05	    1.000000E+00	    7.772730E-05	    2.742242E+00	
   -1.117528E-02	    4.393129E-03	    1.058585E-01	   -1.000000E+00	    1.602025E-03	    1.600000E-03	    8.010000E+02	    1.124911E-05	    3.658606E-04	    2.605134E+04	    7.944733E+05	    1.000000E+00	    9.892423E-05	    8.937117E+00	
   -1.067996E-02	    5.415585E-03	    1.290285E-01	   -1.000000E+00	    1.605883E-03	    1.600000E-03	    8.010000E+02	    3.268062E-05	    6.964745E-04	    1.707055E+04	    7.500692E+05	    1.000000E+00	    1.220640E-04	    2.451272E+01	
   -1.003289E-02	    6.473551E-03	    1.526975E-01	   -1.000000E+00	    1.614553E-03	    1.600000E-03	    8.010000E+02	    8.085183E-05	    1.200113E-03	    1.188953E+04	    6.978036E+05	    1.000000E+00	    1.460540E-04	    5.641870E+01	
   -9.238012E-03	    7.511106E-03	    1.750486E-01	   -1.000000E+00	    1.630296E-03	    1.600000E-03	    8.010000E+02	    1.683098E-04	    1.848951E-03	    8.799308E+03	    6.404662E+05	    1.000000E+00	    1.696274E-04	    1.077968E+02	
   -8.317664E-03	    8.474861E-03	    1.954579E-01	   -1.000000E+00	    1.654521E-03	    1.600000E-03	    8.010000E+02	    3.028929E-04	    2.610474E-03	    6.903395E+03	    5.887921E+05	    1.000000E+00	    1.915653E-04	    1.783409E+02	
   -7.309105E-03	    9.323244E-03	    2.129656E-01	   -1.000000E+00	    1.685557E-03	    1.600000E-03	    8.010000E+02	    4.753192E-04	    3.390475E-03	    5.713572E+03	    5.452540E+05	    1.000000E+00	    2.109099E-04	    2.591697E+02	
   -6.257095E-03	    1.003207E-02	    2.271957E-01	   -1.000000E+00	    1.719563E-03	    1.600000E-03	    8.010000E+02	    6.642379E-04	    4.107571E-03	    4.953292E+03	    5.107188E+05	    1.000000E+00	    2.270961E-04	    3.392388E+02	
   -5.205638E-03	    1.059511E-02	    2.381900E-01	   -1.000000E+00	    1.752057E-03	    1.600000E-03	    8.010000E+02	    8.447639E-04	    4.705662E-03	    4.461880E+03	    4.849383E+05	    1.000000E+00	    2.399687E-04	    4.096583E+02	