Title="Fields"
Variables="X""Y""Velocity""Phi""Effective Viscosity""Dynamic Viscosity""Density""Eddy Viscosity""K""Omega""S"
Zone I=52 J=52 F=POINT
   -1.214864E-02	    6.022430E-05	    0.000000E+00	    0.000000E+00	    1.000000E-03	    1.000000E-03	    1.000000E+03	    0.000000E+00	    0.000000E+00	    0.000000E+00	    0.000000E+00	
   -1.214840E-02	    7.587059E-05	    0.000000E+00	    0.000000E+00	    1.000000E-03	    1.000000E-03	    1.000000E+03	    0.000000E+00	    0.000000E+00	    0.000000E+00	    0.000000E+00	
   -1.214760E-02	    1.201162E-04	    0.000000E+00	    0.000000E+00	    1.000000E-03	    1.000000E-03	    1.000000E+03	    0.000000E+00	    0.000000E+00	    0.000000E+00	    0.000000E+00	
   -1.214604E-02	    1.887791E-04	    0.000000E+00	    0.000000E+00	    1.000000E-03	    1.000000E-03	    1.000000E+03	    0.000000E+00	    0.000000E+00	    0.000000E+00	    0.000000E+00	
   -1.214292E-02	    2.931943E-04	    0.000000E+00	    0.000000E+00	    1.000000E-03	    1.000000E-03	    1.000000E+03	    0.000000E+00	    0.000000E+00	    0.000000E+00	    0.000000E+00	
   -1.213664E-02	    4.481479E-04	    0.000000E+00	    0.000000E+00	    1.000000E-03	    1.000000E-03	    1.000000E+03	    0.000000E+00	    0.000000E+00	    0.000000E+00	    0.000000E+00	
   -1.212408E-02	    6.717413E-04	    0.000000E+00	    0.000000E+00	    1.000000E-03	    1.000000E-03	    1.000000E+03	    0.000000E+00	    0.000000E+00	    0.000000E+00	    0.000000E+00	
   -1.209956E-02	    9.844691E-04	    0.000000E+00	    0.000000E+00	    1.000000E-03	    1.000000E-03	    1.000000E+03	    0.000000E+00	    0.000000E+00	    0.000000E+00	    0.000000E+00	
   -1.205344E-02	    1.407248E-03	    0.000000E+00	    0.000000E+00	    1.000000E-03	    1.000000E-03	    1.000000E+03	    0.000000E+00	    0.000000E+00	    0.000000E+00	    0.000000E+00	
   -1.197068E-02	    1.958259E-03	    0.000000E+00	    0.000000E+00	    1.000000E-03	    1.000000E-03	    1.000000E+03	    0.000000E+00	    0.000000E+00	    0.000000E+00	    0.000000E+00	
   -1.182998E-02	    2.648730E-03	    0.000000E+00	    0.000000E+00	    1.000000E-03	    1.000000E-03	    1.000000E+03	    0.000000E+00	    0.000000E+00	    0.000000E+00	    0.000000E+00	
   -1.160451E-02	    3.478208E-03	    0.000000E+00	    0.000000E+00	    1.000000E-03	    1.000000E-03	    1.000000E+03	    0.000000E+00	    0.000000E+00	    0.000000E+00	    0.000000E+00	
   -1.126508E-02	    4.430482E-03	    0.000000E+00	    0.000000E+00	    1.000000E-03	    1.000000E-03	    1.000000E+03	    0.000000E+00	    0.000000E+00	    0.000000E+00	    0.000000E+00	
   -1.078595E-02	    5.471869E-03	    0.000000E+00	    0.000000E+00	    1.000000E-03	    1.000000E-03	    1.000000E+03	    0.000000E+00	    0.000000E+00	    0.000000E+00	    0.000000E+00	
   -1.015216E-02	    6.553542E-03	    0.000000E+00	    0.000000E+00	    1.000000E-03	    1.000000E-03	    1.000000E+03	    0.000000E+00	    0.000000E+00	    0.000000E+00	    0.000000E+00	
   -9.365676E-03	    7.618437E-03	    0.000000E+00	    0.000000E+00	    1.000000E-03	    1.000000E-03	    1.000000E+03	    0.000000E+00	    0.000000E+00	    0.000000E+00	    0.000000E+00	
   -8.447592E-03	    8.611236E-03	    0.000000E+00	    0.000000E+00	    1.000000E-03	    1.000000E-03	    1.000000E+03	    0.000000E+00	    0.000000E+00	    0.000000E+00	    0.000000E+00	
   -7.434908E-03	    9.488112E-03	    0.000000E+00	    0.000000E+00	    1.000000E-03	    1.000000E-03	    1.000000E+03	    0.000000E+00	    0.000000E+00	    0.000000E+00	    0.000000E+00	
   -6.373132E-03	    1.022286E-02	    0.000000E+00	    0.000000E+00	    1.000000E-03	    1.000000E-03	    1.000000E+03	    0.000000E+00	    0.000000E+00	    0.000000E+00	    0.000000E+00	
   -5.307702E-03	    1.080785E-02	    0.000000E+00	    0.000000E+00	    1.000000E-03	    1.000000E-03	    1.000000E+03	    0.000000E+00	    0.000000E+00	    0.000000E+00	    0.000000E+00	
   -4.277189E-03	    1.125075E-02	    0.000000E+00	    0.000000E+00	    1.000000E-03	    1.000000E-03	    1.000000E+03	    0.000000E+00	    0.000000E+00	    0.000000E+00	    0.000000E+00	
   -3.309761E-03	    1.156901E-02	    0.000000E+00	    0.000000E+00	    1.000000E-03	    1.000000E-03	    1.000000E+03	    0.000000E+00	    0.000000E+00	    0.000000E+00	    0.000000E+00	
   -2.422724E-03	    1.178450E-02	    0.000000E+00	    0.000000E+00	    1.000000E-03	    1.000000E-03	    1.000000E+03	    0.000000E+00	    0.000000E+00	    0.000000E+00	    0.000000E+00	
   -1.624046E-03	    1.191947E-02	    0.000000E+00	    0.000000E+00	    1.000000E-03	    1.000000E-03	    1.000000E+03	    0.000000E+00	    0.000000E+00	    0.000000E+00	    0.000000E+00	
   -9.147101E-04	    1.199402E-02	    0.000000E+00	    0.000000E+00	    1.000000E-03	    1.000000E-03	    1.000000E+03	    0.000000E+00	    0.000000E+00	    0.000000E+00	    0.000000E+00	
   -2.910617E-04	    1.202501E-02	    0.000000E+00	    0.000000E+00	    1.000000E-03	    1.000000E-03	    1.000000E+03	    0.000000E+00	    0.000000E+00	    0.000000E+00	    0.000000E+00	
    2.910617E-04	    1.202501E-02	    0.000000E+00	    0.000000E+00	    1.000000E-03	    1.000000E-03	    1.000000E+03	    0.000000E+00	    0.000000E+00	    0.000000E+00	    0.000000E+00	
    9.147101E-04	    1.199402E-02	    0.000000E+00	    0.000000E+00	    1.000000E-03	    1.000000E-03	    1.000000E+03	    0.000000E+00	    0.000000E+00	    0.000000E+00	    0.000000E+00	
    1.624046E-03	    1.191947E-02	    0.000000E+00	    0.000000E+00	    1.000000E-03	    1.000000E-03	    1.000000E+03	    0.000000E+00	    0.000000E+00	    0.000000E+00	    0.000000E+00	
    2.422724E-03	    1.178450E-02	    0.000000E+00	    0.000000E+00	    1.000000E-03	    1.000000E-03	    1.000000E+03	    0.000000E+00	    0.000000E+00	    0.000000E+00	    0.000000E+00	
    3.309761E-03	    1.156901E-02	    0.000000E+00	    0.000000E+00	    1.000000E-03	    1.000000E-03	    1.000000E+03	    0.000000E+00	    0.000000E+00	    0.000000E+00	    0.000000E+00	
    4.277189E-03	    1.125075E-02	    0.000000E+00	    0.000000E+00	    1.000000E-03	    1.000000E-03	    1.000000E+03	    0.000000E+00	    0.000000E+00	    0.000000E+00	    0.000000E+00	
    5.307702E-03	    1.080785E-02	    0.000000E+00	    0.000000E+00	    1.000000E-03	    1.000000E-03	    1.000000E+03	    0.000000E+00	    0.000000E+00	    0.000000E+00	    0.000000E+00	
    6.373132E-03	    1.022286E-02	    0.000000E+00	    0.000000E+00	    1.000000E-03	    1.000000E-03	    1.000000E+03	    0.000000E+00	    0.000000E+00	    0.000000E+00	    0.000000E+00	
    7.434908E-03	    9.488112E-03	    0.000000E+00	    0.000000E+00	    1.000000E-03	    1.000000E-03	    1.000000E+03	    0.000000E+00	    0.000000E+00	    0.000000E+00	    0.000000E+00	
    8.447592E-03	    8.611236E-03	    0.000000E+00	    0.000000E+00	    1.000000E-03	    1.000000E-03	    1.000000E+03	    0.000000E+00	    0.000000E+00	    0.000000E+00	    0.000000E+00	
    9.365676E-03	    7.618437E-03	    0.000000E+00	    0.000000E+00	    1.000000E-03	    1.000000E-03	    1.000000E+03	    0.000000E+00	    0.000000E+00	    0.000000E+00	    0.000000E+00	
    1.015216E-02	    6.553542E-03	    0.000000E+00	    0.000000E+00	    1.000000E-03	    1.000000E-03	    1.000000E+03	    0.000000E+00	    0.000000E+00	    0.000000E+00	    0.000000E+00	
    1.078595E-02	    5.471869E-03	    0.000000E+00	    0.000000E+00	    1.000000E-03	    1.000000E-03	    1.000000E+03	    0.000000E+00	    0.000000E+00	    0.000000E+00	    0.000000E+00	
    1.126508E-02	    4.430482E-03	    0.000000E+00	    0.000000E+00	    1.000000E-03	    1.000000E-03	    1.000000E+03	    0.000000E+00	    0.000000E+00	    0.000000E+00	    0.000000E+00	
    1.160451E-02	    3.478208E-03	    0.000000E+00	    0.000000E+00	    1.000000E-03	    1.000000E-03	    1.000000E+03	    0.000000E+00	    0.000000E+00	    0.000000E+00	    0.000000E+00	
    1.182998E-02	    2.648730E-03	    0.000000E+00	    0.000000E+00	    1.000000E-03	    1.000000E-03	    1.000000E+03	    0.000000E+00	    0.000000E+00	    0.000000E+00	    0.000000E+00	
    1.197068E-02	    1.958259E-03	    0.000000E+00	    0.000000E+00	    1.000000E-03	    1.000000E-03	    1.000000E+03	    0.000000E+00	    0.000000E+00	    0.000000E+00	    0.000000E+00	
    1.205344E-02	    1.407248E-03	    0.000000E+00	    0.000000E+00	    1.000000E-03	    1.000000E-03	    1.000000E+03	    0.000000E+00	    0.000000E+00	    0.000000E+00	    0.000000E+00	
    1.209956E-02	    9.844691E-04	    0.000000E+00	    0.000000E+00	    1.000000E-03	    1.000000E-03	    1.000000E+03	    0.000000E+00	    0.000000E+00	    0.000000E+00	    0.000000E+00	
    1.212408E-02	    6.717413E-04	    0.000000E+00	    0.000000E+00	    1.000000E-03	    1.000000E-03	    1.000000E+03	    0.000000E+00	    0.000000E+00	    0.000000E+00	    0.000000E+00	
    1.213664E-02	    4.481479E-04	    0.000000E+00	    0.000000E+00	    1.000000E-03	    1.000000E-03	    1.000000E+03	    0.000000E+00	    0.000000E+00	    0.000000E+00	    0.000000E+00	
    1.214292E-02	    2.931943E-04	    0.000000E+00	    0.000000E+00	    1.000000E-03	    1.000000E-03	    1.000000E+03	    0.000000E+00	    0.000000E+00	    0.000000E+00	    0.000000E+00	
    1.214604E-02	    1.887791E-04	    0.000000E+00	    0.000000E+00	    1.000000E-03	    1.000000E-03	    1.000000E+03	    0.000000E+00	    0.000000E+00	    0.000000E+00	    0.000000E+00	
    1.214760E-02	    1.201162E-04	    0.000000E+00	    0.000000E+00	    1.000000E-03	    1.000000E-03	    1.000000E+03	    0.000000E+00	    0.000000E+00	    0.000000E+00	    0.000000E+00	
    1.214840E-02	    7.587059E-05	    0.000000E+00	    0.000000E+00	    1.000000E-03	    1.000000E-03	    1.000000E+03	    0.000000E+00	    0.000000E+00	    0.000000E+00	    0.000000E+00	
    1.214864E-02	    6.022430E-05	    0.000000E+00	    0.000000E+00	    1.000000E-03	    1.000000E-03	    1.000000E+03	    0.000000E+00	    0.000000E+00	    0.000000E+00	    0.000000E+00	
   -1.214823E-02	    6.021683E-05	    0.000000E+00	    0.000000E+00	    1.000000E-03	    1.000000E-03	    1.000000E+03	    0.000000E+00	    0.000000E+00	    0.000000E+00	    0.000000E+00	
   -1.214788E-02	    7.586052E-05	    9.989673E-05	   -1.000000E+00	    1.000652E-03	    1.000000E-03	    1.000000E+03	    2.963173E-06	    6.615543E-04	    2.232587E+05	    3.759830E+04	
   -1.214679E-02	    1.200973E-04	    3.096603E-04	   -1.000000E+00	    1.000669E-03	    1.000000E-03	    1.000000E+03	    3.040475E-06	    2.779002E-04	    9.140026E+04	    1.452288E+05	
   -1.214476E-02	    1.887422E-04	    5.814832E-04	   -1.000000E+00	    1.001171E-03	    1.000000E-03	    1.000000E+03	    5.324207E-06	    3.450067E-04	    6.479964E+04	    2.072011E+05	
   -1.214094E-02	    2.931200E-04	    9.612720E-04	   -1.000000E+00	    1.002123E-03	    1.000000E-03	    1.000000E+03	    9.649286E-06	    4.698184E-04	    4.868944E+04	    2.344963E+05	
   -1.213361E-02	    4.479957E-04	    1.509367E-03	   -1.000000E+00	    1.003698E-03	    1.000000E-03	    1.000000E+03	    1.680773E-05	    6.101878E-04	    3.630400E+04	    2.470172E+05	
   -1.211955E-02	    6.714295E-04	    2.298854E-03	   -1.000000E+00	    1.006203E-03	    1.000000E-03	    1.000000E+03	    2.819595E-05	    7.643842E-04	    2.710971E+04	    2.543109E+05	
   -1.209293E-02	    9.838410E-04	    3.411378E-03	   -1.000000E+00	    1.010023E-03	    1.000000E-03	    1.000000E+03	    4.556040E-05	    9.293703E-04	    2.039864E+04	    2.595910E+05	
   -1.204401E-02	    1.406019E-03	    4.929526E-03	   -1.000000E+00	    1.015581E-03	    1.000000E-03	    1.000000E+03	    7.082232E-05	    1.099307E-03	    1.552205E+04	    2.635191E+05	
   -1.195765E-02	    1.955950E-03	    6.924658E-03	   -1.000000E+00	    1.023279E-03	    1.000000E-03	    1.000000E+03	    1.058122E-04	    1.267605E-03	    1.197977E+04	    2.658928E+05	
   -1.181256E-02	    2.644593E-03	    9.440113E-03	   -1.000000E+00	    1.033416E-03	    1.000000E-03	    1.000000E+03	    1.518917E-04	    1.428276E-03	    9.403254E+03	    2.662368E+05	
   -1.158209E-02	    3.471175E-03	    1.247280E-02	   -1.000000E+00	    1.046091E-03	    1.000000E-03	    1.000000E+03	    2.095047E-04	    1.576507E-03	    7.524927E+03	    2.640923E+05	
   -1.123737E-02	    4.419185E-03	    1.595856E-02	   -1.000000E+00	    1.061109E-03	    1.000000E-03	    1.000000E+03	    2.777696E-04	    1.708901E-03	    6.152225E+03	    2.593103E+05	
   -1.075321E-02	    5.454763E-03	    1.976737E-02	   -1.000000E+00	    1.077941E-03	    1.000000E-03	    1.000000E+03	    3.542789E-04	    1.823558E-03	    5.147238E+03	    2.522814E+05	
   -1.011527E-02	    6.529136E-03	    2.371407E-02	   -1.000000E+00	    1.095757E-03	    1.000000E-03	    1.000000E+03	    4.352594E-04	    1.920017E-03	    4.411203E+03	    2.438951E+05	
   -9.326135E-03	    7.585587E-03	    2.758676E-02	   -1.000000E+00	    1.113549E-03	    1.000000E-03	    1.000000E+03	    5.161313E-04	    1.998968E-03	    3.872984E+03	    2.352211E+05	
   -8.407302E-03	    8.569391E-03	    3.118419E-02	   -1.000000E+00	    1.130313E-03	    1.000000E-03	    1.000000E+03	    5.923305E-04	    2.061832E-03	    3.480882E+03	    2.271442E+05	
   -7.395856E-03	    9.437422E-03	    3.435008E-02	   -1.000000E+00	    1.145231E-03	    1.000000E-03	    1.000000E+03	    6.601424E-04	    2.110487E-03	    3.197018E+03	    2.201933E+05	
   -6.337080E-03	    1.016411E-02	    3.699376E-02	   -1.000000E+00	    1.157796E-03	    1.000000E-03	    1.000000E+03	    7.172554E-04	    2.147074E-03	    2.993458E+03	    2.145649E+05	
   -5.275969E-03	    1.074227E-02	    3.909215E-02	   -1.000000E+00	    1.167834E-03	    1.000000E-03	    1.000000E+03	    7.628803E-04	    2.173792E-03	    2.849454E+03	    2.102299E+05	
   -4.250575E-03	    1.117974E-02	    4.067654E-02	   -1.000000E+00	    1.175448E-03	    1.000000E-03	    1.000000E+03	    7.974929E-04	    2.192709E-03	    2.749503E+03	    2.070373E+05	
   -3.288589E-03	    1.149396E-02	    4.181237E-02	   -1.000000E+00	    1.180926E-03	    1.000000E-03	    1.000000E+03	    8.223924E-04	    2.205632E-03	    2.681970E+03	    2.047895E+05	
   -2.406939E-03	    1.170666E-02	    4.257981E-02	   -1.000000E+00	    1.184637E-03	    1.000000E-03	    1.000000E+03	    8.392594E-04	    2.214056E-03	    2.638107E+03	    2.032868E+05	
   -1.613344E-03	    1.183985E-02	    4.305933E-02	   -1.000000E+00	    1.186961E-03	    1.000000E-03	    1.000000E+03	    8.498209E-04	    2.219178E-03	    2.611347E+03	    2.023500E+05	
   -9.086451E-04	    1.191341E-02	    4.332318E-02	   -1.000000E+00	    1.188242E-03	    1.000000E-03	    1.000000E+03	    8.556463E-04	    2.221919E-03	    2.596773E+03	    2.018287E+05	
   -2.891269E-04	    1.194400E-02	    4.343156E-02	   -1.000000E+00	    1.188772E-03	    1.000000E-03	    1.000000E+03	    8.580547E-04	    2.222979E-03	    2.590720E+03	    2.016022E+05	
    2.891269E-04	    1.194400E-02	    4.343156E-02	   -1.000000E+00	    1.188772E-03	    1.000000E-03	    1.000000E+03	    8.580547E-04	    2.222979E-03	    2.590720E+03	    2.016022E+05	
    9.086451E-04	    1.191341E-02	    4.332318E-02	   -1.000000E+00	    1.188242E-03	    1.000000E-03	    1.000000E+03	    8.556463E-04	    2.221919E-03	    2.596773E+03	    2.018287E+05	
    1.613344E-03	    1.183985E-02	    4.305933E-02	   -1.000000E+00	    1.186961E-03	    1.000000E-03	    1.000000E+03	    8.498209E-04	    2.219178E-03	    2.611347E+03	    2.023500E+05	
    2.406939E-03	    1.170666E-02	    4.257981E-02	   -1.000000E+00	    1.184637E-03	    1.000000E-03	    1.000000E+03	    8.392594E-04	    2.214056E-03	    2.638107E+03	    2.032868E+05	
    3.288589E-03	    1.149396E-02	    4.181237E-02	   -1.000000E+00	    1.180926E-03	    1.000000E-03	    1.000000E+03	    8.223924E-04	    2.205632E-03	    2.681970E+03	    2.047895E+05	
    4.250575E-03	    1.117974E-02	    4.067654E-02	   -1.000000E+00	    1.175448E-03	    1.000000E-03	    1.000000E+03	    7.974929E-04	    2.192709E-03	    2.749503E+03	    2.070373E+05	
    5.275969E-03	    1.074227E-02	    3.909215E-02	   -1.000000E+00	    1.167834E-03	    1.000000E-03	    1.000000E+03	    7.628803E-04	    2.173792E-03	    2.849454E+03	    2.102299E+05	
    6.337080E-03	    1.016411E-02	    3.699376E-02	   -1.000000E+00	    1.157796E-03	    1.000000E-03	    1.000000E+03	    7.172554E-04	    2.147074E-03	    2.993458E+03	    2.145649E+05	
    7.395856E-03	    9.437422E-03	    3.435008E-02	   -1.000000E+00	    1.145231E-03	    1.000000E-03	    1.000000E+03	    6.601424E-04	    2.110487E-03	    3.197018E+03	    2.201933E+05	
    8.407302E-03	    8.569391E-03	    3.118419E-02	   -1.000000E+00	    1.130313E-03	    1.000000E-03	    1.000000E+03	    5.923305E-04	    2.061832E-03	    3.480882E+03	    2.271442E+05	
    9.326135E-03	    7.585587E-03	    2.758676E-02	   -1.000000E+00	    1.113549E-03	    1.000000E-03	    1.000000E+03	    5.161313E-04	    1.998968E-03	    3.872984E+03	    2.352211E+05	
    1.011527E-02	    6.529136E-03	    2.371407E-02	   -1.000000E+00	    1.095757E-03	    1.000000E-03	    1.000000E+03	    4.352594E-04	    1.920017E-03	    4.411203E+03	    2.438951E+05	
    1.075321E-02	    5.454763E-03	    1.976737E-02	   -1.000000E+00	    1.077941E-03	    1.000000E-03	    1.000000E+03	    3.542789E-04	    1.823558E-03	    5.147238E+03	    2.522814E+05	
    1.123737E-02	    4.419185E-03	    1.595856E-02	   -1.000000E+00	    1.061109E-03	    1.000000E-03	    1.000000E+03	    2.777696E-04	    1.708901E-03	    6.152225E+03	    2.593103E+05	
    1.158209E-02	    3.471175E-03	    1.247280E-02	   -1.000000E+00	    1.046091E-03	    1.000000E-03	    1.000000E+03	    2.095047E-04	    1.576507E-03	    7.524927E+03	    2.640923E+05	
    1.181256E-02	    2.644593E-03	    9.440113E-03	   -1.000000E+00	    1.033416E-03	    1.000000E-03	    1.000000E+03	    1.518917E-04	    1.428276E-03	    9.403254E+03	    2.662368E+05	
    1.195765E-02	    1.955950E-03	    6.924658E-03	   -1.000000E+00	    1.023279E-03	    1.000000E-03	    1.000000E+03	    1.058122E-04	    1.267605E-03	    1.197977E+04	    2.658928E+05	
    1.204401E-02	    1.406019E-03	    4.929526E-03	   -1.000000E+00	    1.015581E-03	    1.000000E-03	    1.000000E+03	    7.082232E-05	    1.099307E-03	    1.552205E+04	    2.635191E+05	
    1.209293E-02	    9.838410E-04	    3.411378E-03	   -1.000000E+00	    1.010023E-03	    1.000000E-03	    1.000000E+03	    4.556040E-05	    9.293703E-04	    2.039864E+04	    2.595910E+05	
    1.211955E-02	    6.714295E-04	    2.298854E-03	   -1.000000E+00	    1.006203E-03	    1.000000E-03	    1.000000E+03	    2.819595E-05	    7.643842E-04	    2.710971E+04	    2.543109E+05	
    1.213361E-02	    4.479957E-04	    1.509367E-03	   -1.000000E+00	    1.003698E-03	    1.000000E-03	    1.000000E+03	    1.680773E-05	    6.101878E-04	    3.630400E+04	    2.470172E+05	
    1.214094E-02	    2.931200E-04	    9.612720E-04	   -1.000000E+00	    1.002123E-03	    1.000000E-03	    1.000000E+03	    9.649286E-06	    4.698184E-04	    4.868944E+04	    2.344963E+05	
    1.214476E-02	    1.887422E-04	    5.814832E-04	   -1.000000E+00	    1.001171E-03	    1.000000E-03	    1.000000E+03	    5.324207E-06	    3.450067E-04	    6.479964E+04	    2.072011E+05	
    1.214679E-02	    1.200973E-04	    3.096603E-04	   -1.000000E+00	    1.000669E-03	    1.000000E-03	    1.000000E+03	    3.040475E-06	    2.779002E-04	    9.140026E+04	    1.452288E+05	
    1.214788E-02	    7.586052E-05	    9.989673E-05	   -1.000000E+00	    1.000652E-03	    1.000000E-03	    1.000000E+03	    2.963173E-06	    6.615543E-04	    2.232587E+05	    3.759830E+04	
    1.214823E-02	    6.021683E-05	    0.000000E+00	    0.000000E+00	    1.000000E-03	    1.000000E-03	    1.000000E+03	    0.000000E+00	    0.000000E+00	    0.000000E+00	    0.000000E+00	
   -1.214729E-02	    6.018900E-05	    0.000000E+00	    0.000000E+00	    1.000000E-03	    1.000000E-03	    1.000000E+03	    0.000000E+00	    0.000000E+00	    0.000000E+00	    0.000000E+00	
   -1.214670E-02	    7.582392E-05	    3.289230E-04	   -1.000000E+00	    1.019892E-03	    1.000000E-03	    1.000000E+03	    9.041869E-05	    6.622288E-04	    7.324026E+03	    3.716247E+04	
   -1.214491E-02	    1.200325E-04	    1.025505E-03	   -1.000000E+00	    1.000699E-03	    1.000000E-03	    1.000000E+03	    3.176771E-06	    2.525444E-04	    7.949720E+04	    1.451671E+05	
   -1.214181E-02	    1.886237E-04	    1.924880E-03	   -1.000000E+00	    1.001187E-03	    1.000000E-03	    1.000000E+03	    5.396870E-06	    2.934730E-04	    5.437838E+04	    2.068655E+05	
   -1.213636E-02	    2.928967E-04	    3.179457E-03	   -1.000000E+00	    1.002160E-03	    1.000000E-03	    1.000000E+03	    9.817992E-06	    3.788607E-04	    3.858841E+04	    2.337867E+05	
   -1.212662E-02	    4.475651E-04	    4.985510E-03	   -1.000000E+00	    1.003810E-03	    1.000000E-03	    1.000000E+03	    1.731644E-05	    4.655985E-04	    2.688765E+04	    2.457285E+05	
   -1.210908E-02	    6.705914E-04	    7.576842E-03	   -1.000000E+00	    1.006543E-03	    1.000000E-03	    1.000000E+03	    2.974212E-05	    5.525190E-04	    1.857699E+04	    2.520640E+05	
   -1.207763E-02	    9.822180E-04	    1.120633E-02	   -1.000000E+00	    1.011023E-03	    1.000000E-03	    1.000000E+03	    5.010308E-05	    6.430072E-04	    1.283369E+04	    2.556863E+05	
   -1.202224E-02	    1.402938E-03	    1.611277E-02	   -1.000000E+00	    1.018365E-03	    1.000000E-03	    1.000000E+03	    8.347558E-05	    7.455466E-04	    8.931313E+03	    2.566123E+05	
   -1.192760E-02	    1.950285E-03	    2.246799E-02	   -1.000000E+00	    1.030503E-03	    1.000000E-03	    1.000000E+03	    1.386518E-04	    8.750729E-04	    6.311298E+03	    2.534417E+05	
   -1.177247E-02	    2.634602E-03	    3.030424E-02	   -1.000000E+00	    1.050585E-03	    1.000000E-03	    1.000000E+03	    2.299321E-04	    1.049993E-03	    4.566534E+03	    2.441562E+05	
   -1.153055E-02	    3.454397E-03	    3.944187E-02	   -1.000000E+00	    1.082862E-03	    1.000000E-03	    1.000000E+03	    3.766451E-04	    1.284361E-03	    3.410003E+03	    2.277762E+05	
   -1.117378E-02	    4.392487E-03	    4.946310E-02	   -1.000000E+00	    1.131346E-03	    1.000000E-03	    1.000000E+03	    5.970295E-04	    1.578278E-03	    2.643552E+03	    2.059733E+05	
   -1.067819E-02	    5.414629E-03	    5.977693E-02	   -1.000000E+00	    1.197450E-03	    1.000000E-03	    1.000000E+03	    8.974990E-04	    1.913734E-03	    2.132296E+03	    1.822748E+05	
   -1.003092E-02	    6.472204E-03	    6.976019E-02	   -1.000000E+00	    1.278418E-03	    1.000000E-03	    1.000000E+03	    1.265538E-03	    2.261053E-03	    1.786634E+03	    1.599148E+05	
   -9.235913E-03	    7.509312E-03	    7.889720E-02	   -1.000000E+00	    1.367938E-03	    1.000000E-03	    1.000000E+03	    1.672447E-03	    2.590696E-03	    1.549045E+03	    1.407409E+05	
   -8.315535E-03	    8.472593E-03	    8.685129E-02	   -1.000000E+00	    1.458243E-03	    1.000000E-03	    1.000000E+03	    2.082924E-03	    2.881562E-03	    1.383422E+03	    1.253273E+05	
   -7.307050E-03	    9.320514E-03	    9.346897E-02	   -1.000000E+00	    1.542303E-03	    1.000000E-03	    1.000000E+03	    2.465015E-03	    3.123229E-03	    1.267022E+03	    1.134816E+05	
   -6.255204E-03	    1.002892E-02	    9.874784E-02	   -1.000000E+00	    1.615215E-03	    1.000000E-03	    1.000000E+03	    2.796431E-03	    3.314181E-03	    1.185147E+03	    1.046791E+05	
   -5.203978E-03	    1.059161E-02	    1.027916E-01	   -1.000000E+00	    1.674590E-03	    1.000000E-03	    1.000000E+03	    3.066317E-03	    3.458616E-03	    1.127938E+03	    9.832021E+04	
   -4.190247E-03	    1.101682E-02	    1.057650E-01	   -1.000000E+00	    1.720201E-03	    1.000000E-03	    1.000000E+03	    3.273641E-03	    3.563493E-03	    1.088541E+03	    9.385238E+04	
   -3.240621E-03	    1.132195E-02	    1.078566E-01	   -1.000000E+00	    1.753279E-03	    1.000000E-03	    1.000000E+03	    3.423996E-03	    3.636469E-03	    1.062054E+03	    9.081189E+04	
   -2.371191E-03	    1.152836E-02	    1.092516E-01	   -1.000000E+00	    1.775802E-03	    1.000000E-03	    1.000000E+03	    3.526370E-03	    3.684719E-03	    1.044904E+03	    8.882851E+04	
   -1.589115E-03	    1.165755E-02	    1.101157E-01	   -1.000000E+00	    1.789948E-03	    1.000000E-03	    1.000000E+03	    3.590674E-03	    3.714410E-03	    1.034460E+03	    8.761492E+04	
   -8.949153E-04	    1.172889E-02	    1.105885E-01	   -1.000000E+00	    1.797764E-03	    1.000000E-03	    1.000000E+03	    3.626202E-03	    3.730560E-03	    1.028779E+03	    8.695214E+04	
   -2.847470E-04	    1.175854E-02	    1.107818E-01	   -1.000000E+00	    1.800994E-03	    1.000000E-03	    1.000000E+03	    3.640883E-03	    3.737095E-03	    1.026425E+03	    8.667553E+04	
    2.847470E-04	    1.175854E-02	    1.107818E-01	   -1.000000E+00	    1.800994E-03	    1.000000E-03	    1.000000E+03	    3.640883E-03	    3.737095E-03	    1.026425E+03	    8.667553E+04	
    8.949153E-04	    1.172889E-02	    1.105885E-01	   -1.000000E+00	    1.797764E-03	    1.000000E-03	    1.000000E+03	    3.626202E-03	    3.730560E-03	    1.028779E+03	    8.695214E+04	
    1.589115E-03	    1.165755E-02	    1.101157E-01	   -1.000000E+00	    1.789948E-03	    1.000000E-03	    1.000000E+03	    3.590674E-03	    3.714410E-03	    1.034460E+03	    8.761492E+04	
    2.371191E-03	    1.152836E-02	    1.092516E-01	   -1.000000E+00	    1.775802E-03	    1.000000E-03	    1.000000E+03	    3.526370E-03	    3.684719E-03	    1.044904E+03	    8.882851E+04	
    3.240621E-03	    1.132195E-02	    1.078566E-01	   -1.000000E+00	    1.753279E-03	    1.000000E-03	    1.000000E+03	    3.423996E-03	    3.636469E-03	    1.062054E+03	    9.081189E+04	
    4.190247E-03	    1.101682E-02	    1.057650E-01	   -1.000000E+00	    1.720201E-03	    1.000000E-03	    1.000000E+03	    3.273641E-03	    3.563493E-03	    1.088541E+03	    9.385238E+04	
    5.203978E-03	    1.059161E-02	    1.027916E-01	   -1.000000E+00	    1.674590E-03	    1.000000E-03	    1.000000E+03	    3.066317E-03	    3.458616E-03	    1.127938E+03	    9.832021E+04	
    6.255204E-03	    1.002892E-02	    9.874784E-02	   -1.000000E+00	    1.615215E-03	    1.000000E-03	    1.000000E+03	    2.796431E-03	    3.314181E-03	    1.185147E+03	    1.046791E+05	
    7.307050E-03	    9.320514E-03	    9.346897E-02	   -1.000000E+00	    1.542303E-03	    1.000000E-03	    1.000000E+03	    2.465015E-03	    3.123229E-03	    1.267022E+03	    1.134816E+05	
    8.315535E-03	    8.472593E-03	    8.685129E-02	   -1.000000E+00	    1.458243E-03	    1.000000E-03	    1.000000E+03	    2.082924E-03	    2.881562E-03	    1.383422E+03	    1.253273E+05	
    9.235913E-03	    7.509312E-03	    7.889720E-02	   -1.000000E+00	    1.367938E-03	    1.000000E-03	    1.000000E+03	    1.672447E-03	    2.590696E-03	    1.549045E+03	    1.407409E+05	
    1.003092E-02	    6.472204E-03	    6.976019E-02	   -1.000000E+00	    1.278418E-03	    1.000000E-03	    1.000000E+03	    1.265538E-03	    2.261053E-03	    1.786634E+03	    1.599148E+05	
    1.067819E-02	    5.414629E-03	    5.977693E-02	   -1.000000E+00	    1.197450E-03	    1.000000E-03	    1.000000E+03	    8.974990E-04	    1.913734E-03	    2.132296E+03	    1.822748E+05	
    1.117378E-02	    4.392487E-03	    4.946310E-02	   -1.000000E+00	    1.131346E-03	    1.000000E-03	    1.000000E+03	    5.970295E-04	    1.578278E-03	    2.643552E+03	    2.059733E+05	
    1.153055E-02	    3.454397E-03	    3.944187E-02	   -1.000000E+00	    1.082862E-03	    1.000000E-03	    1.000000E+03	    3.766451E-04	    1.284361E-03	    3.410003E+03	    2.277762E+05	
    1.177247E-02	    2.634602E-03	    3.030424E-02	   -1.000000E+00	    1.050585E-03	    1.000000E-03	    1.000000E+03	    2.299321E-04	    1.049993E-03	    4.566534E+03	    2.441562E+05	
    1.192760E-02	    1.950285E-03	    2.246799E-02	   -1.000000E+00	    1.030503E-03	    1.000000E-03	    1.000000E+03	    1.386518E-04	    8.750729E-04	    6.311298E+03	    2.534417E+05	
    1.202224E-02	    1.402938E-03	    1.611277E-02	   -1.000000E+00	    1.018365E-03	    1.000000E-03	    1.000000E+03	    8.347558E-05	    7.455466E-04	    8.931313E+03	    2.566123E+05	
    1.207763E-02	    9.822180E-04	    1.120633E-02	   -1.000000E+00	    1.011023E-03	    1.000000E-03	    1.000000E+03	    5.010308E-05	    6.430072E-04	    1.283369E+04	    2.556863E+05	
    1.210908E-02	    6.705914E-04	    7.576842E-03	   -1.000000E+00	    1.006543E-03	    1.000000E-03	    1.000000E+03	    2.974212E-05	    5.525190E-04	    1.857699E+04	    2.520640E+05	
    1.212662E-02	    4.475651E-04	    4.985510E-03	   -1.000000E+00	    1.003810E-03	    1.000000E-03	    1.000000E+03	    1.731644E-05	    4.655985E-04	    2.688765E+04	    2.457285E+05	
    1.213636E-02	    2.928967E-04	    3.179457E-03	   -1.000000E+00	    1.002160E-03	    1.000000E-03	    1.000000E+03	    9.817992E-06	    3.788607E-04	    3.858841E+04	    2.337867E+05	
    1.214181E-02	    1.886237E-04	    1.924880E-03	   -1.000000E+00	    1.001187E-03	    1.000000E-03	    1.000000E+03	    5.396870E-06	    2.934730E-04	    5.437838E+04	    2.068655E+05	
    1.214491E-02	    1.200325E-04	    1.025505E-03	   -1.000000E+00	    1.000699E-03	    1.000000E-03	    1.000000E+03	    3.176771E-06	    2.525444E-04	    7.949720E+04	    1.451671E+05	
    1.214670E-02	    7.582392E-05	    3.289230E-04	   -1.000000E+00	    1.019892E-03	    1.000000E-03	    1.000000E+03	    9.041869E-05	    6.622288E-04	    7.324026E+03	    3.716247E+04	
    1.214729E-02	    6.018900E-05	    0.000000E+00	    0.000000E+00	    1.000000E-03	    1.000000E-03	    1.000000E+03	    0.000000E+00	    0.000000E+00	    0.000000E+00	    0.000000E+00	
   -1.214606E-02	    6.013027E-05	    0.000000E+00	    0.000000E+00	    1.000000E-03	    1.000000E-03	    1.000000E+03	    0.000000E+00	    0.000000E+00	    0.000000E+00	    0.000000E+00	
   -1.214514E-02	    7.574794E-05	    6.253737E-04	   -1.000000E+00	    1.019925E-03	    1.000000E-03	    1.000000E+03	    9.056747E-05	    6.645624E-04	    7.337761E+03	    3.767949E+04	