Title="Fields"
Variables="X""Y""Velocity""Phi""Effective Viscosity""Dynamic Viscosity""Density""Eddy Viscosity""K""Epsilon""S"
Zone I=22 J=22 F=POINT
   -1.260421E-02	    6.205142E-05	    0.000000E+00	   -1.000000E+00	    1.200000E-02	    1.200000E-02	    8.750000E+02	    0.000000E+00	    0.000000E+00	    0.000000E+00	    0.000000E+00	
   -1.259820E-02	    1.099003E-04	    0.000000E+00	   -1.000000E+00	    1.200000E-02	    1.200000E-02	    8.750000E+02	    0.000000E+00	    0.000000E+00	    0.000000E+00	    0.000000E+00	
   -1.256792E-02	    3.319933E-04	    0.000000E+00	   -1.000000E+00	    1.200000E-02	    1.200000E-02	    8.750000E+02	    0.000000E+00	    0.000000E+00	    0.000000E+00	    0.000000E+00	
   -1.247153E-02	    9.032332E-04	    0.000000E+00	   -1.000000E+00	    1.200000E-02	    1.200000E-02	    8.750000E+02	    0.000000E+00	    0.000000E+00	    0.000000E+00	    0.000000E+00	
   -1.217830E-02	    2.107769E-03	    0.000000E+00	   -1.000000E+00	    1.200000E-02	    1.200000E-02	    8.750000E+02	    0.000000E+00	    0.000000E+00	    0.000000E+00	    0.000000E+00	
   -1.140277E-02	    4.096813E-03	    0.000000E+00	   -1.000000E+00	    1.200000E-02	    1.200000E-02	    8.750000E+02	    0.000000E+00	    0.000000E+00	    0.000000E+00	    0.000000E+00	
   -9.818145E-03	    6.560822E-03	    0.000000E+00	   -1.000000E+00	    1.200000E-02	    1.200000E-02	    8.750000E+02	    0.000000E+00	    0.000000E+00	    0.000000E+00	    0.000000E+00	
   -7.462540E-03	    8.781348E-03	    0.000000E+00	   -1.000000E+00	    1.200000E-02	    1.200000E-02	    8.750000E+02	    0.000000E+00	    0.000000E+00	    0.000000E+00	    0.000000E+00	
   -4.859535E-03	    1.023863E-02	    0.000000E+00	   -1.000000E+00	    1.200000E-02	    1.200000E-02	    8.750000E+02	    0.000000E+00	    0.000000E+00	    0.000000E+00	    0.000000E+00	
   -2.550558E-03	    1.094639E-02	    0.000000E+00	   -1.000000E+00	    1.200000E-02	    1.200000E-02	    8.750000E+02	    0.000000E+00	    0.000000E+00	    0.000000E+00	    0.000000E+00	
   -7.592265E-04	    1.118242E-02	    0.000000E+00	   -1.000000E+00	    1.200000E-02	    1.200000E-02	    8.750000E+02	    0.000000E+00	    0.000000E+00	    0.000000E+00	    0.000000E+00	
    7.592265E-04	    1.118242E-02	    0.000000E+00	   -1.000000E+00	    1.200000E-02	    1.200000E-02	    8.750000E+02	    0.000000E+00	    0.000000E+00	    0.000000E+00	    0.000000E+00	
    2.550558E-03	    1.094639E-02	    0.000000E+00	   -1.000000E+00	    1.200000E-02	    1.200000E-02	    8.750000E+02	    0.000000E+00	    0.000000E+00	    0.000000E+00	    0.000000E+00	
    4.859535E-03	    1.023863E-02	    0.000000E+00	   -1.000000E+00	    1.200000E-02	    1.200000E-02	    8.750000E+02	    0.000000E+00	    0.000000E+00	    0.000000E+00	    0.000000E+00	
    7.462540E-03	    8.781348E-03	    0.000000E+00	   -1.000000E+00	    1.200000E-02	    1.200000E-02	    8.750000E+02	    0.000000E+00	    0.000000E+00	    0.000000E+00	    0.000000E+00	
    9.818145E-03	    6.560822E-03	    0.000000E+00	   -1.000000E+00	    1.200000E-02	    1.200000E-02	    8.750000E+02	    0.000000E+00	    0.000000E+00	    0.000000E+00	    0.000000E+00	
    1.140277E-02	    4.096813E-03	    0.000000E+00	   -1.000000E+00	    1.200000E-02	    1.200000E-02	    8.750000E+02	    0.000000E+00	    0.000000E+00	    0.000000E+00	    0.000000E+00	
    1.217830E-02	    2.107769E-03	    0.000000E+00	   -1.000000E+00	    1.200000E-02	    1.200000E-02	    8.750000E+02	    0.000000E+00	    0.000000E+00	    0.000000E+00	    0.000000E+00	
    1.247153E-02	    9.032332E-04	    0.000000E+00	   -1.000000E+00	    1.200000E-02	    1.200000E-02	    8.750000E+02	    0.000000E+00	    0.000000E+00	    0.000000E+00	    0.000000E+00	
    1.256792E-02	    3.319933E-04	    0.000000E+00	   -1.000000E+00	    1.200000E-02	    1.200000E-02	    8.750000E+02	    0.000000E+00	    0.000000E+00	    0.000000E+00	    0.000000E+00	
    1.259820E-02	    1.099003E-04	    0.000000E+00	   -1.000000E+00	    1.200000E-02	    1.200000E-02	    8.750000E+02	    0.000000E+00	    0.000000E+00	    0.000000E+00	    0.000000E+00	
    1.260421E-02	    6.205142E-05	    0.000000E+00	   -1.000000E+00	    1.200000E-02	    1.200000E-02	    8.750000E+02	    0.000000E+00	    0.000000E+00	    0.000000E+00	    0.000000E+00	
   -1.260299E-02	    6.188929E-05	    0.000000E+00	   -1.000000E+00	    1.200000E-02	    1.200000E-02	    8.750000E+02	    0.000000E+00	    0.000000E+00	    0.000000E+00	    0.000000E+00	
   -1.259605E-02	    1.096049E-04	    3.425850E-04	   -1.000000E+00	    1.200502E-02	    1.200000E-02	    8.750000E+02	    3.343459E-05	    6.146770E-03	    8.899149E+01	    2.485417E+04	
   -1.256144E-02	    3.309870E-04	    1.373293E-03	   -1.000000E+00	    1.201074E-02	    1.200000E-02	    8.750000E+02	    7.157559E-05	    3.087973E-03	    1.049138E+01	    4.381576E+04	
   -1.245406E-02	    8.996977E-04	    3.494549E-03	   -1.000000E+00	    1.203369E-02	    1.200000E-02	    8.750000E+02	    2.245905E-04	    4.111213E-03	    5.926513E+00	    3.823775E+04	
   -1.213856E-02	    2.095603E-03	    7.374250E-03	   -1.000000E+00	    1.209041E-02	    1.200000E-02	    8.750000E+02	    6.027450E-04	    5.447774E-03	    3.877529E+00	    3.105196E+04	
   -1.133067E-02	    4.060663E-03	    1.317848E-02	   -1.000000E+00	    1.219129E-02	    1.200000E-02	    8.750000E+02	    1.275246E-03	    6.474834E-03	    2.588891E+00	    2.584118E+04	
   -9.719104E-03	    6.478294E-03	    1.987369E-02	   -1.000000E+00	    1.231990E-02	    1.200000E-02	    8.750000E+02	    2.132635E-03	    7.087579E-03	    1.854940E+00	    2.233384E+04	
   -7.362127E-03	    8.641385E-03	    2.560604E-02	   -1.000000E+00	    1.243657E-02	    1.200000E-02	    8.750000E+02	    2.910483E-03	    7.393828E-03	    1.479191E+00	    2.015323E+04	
   -4.783465E-03	    1.005300E-02	    2.924062E-02	   -1.000000E+00	    1.251313E-02	    1.200000E-02	    8.750000E+02	    3.420879E-03	    7.530466E-03	    1.305439E+00	    1.898493E+04	
   -2.507918E-03	    1.073630E-02	    3.096189E-02	   -1.000000E+00	    1.255016E-02	    1.200000E-02	    8.750000E+02	    3.667749E-03	    7.581545E-03	    1.234146E+00	    1.845885E+04	
   -7.462649E-04	    1.096385E-02	    3.151522E-02	   -1.000000E+00	    1.256236E-02	    1.200000E-02	    8.750000E+02	    3.749037E-03	    7.593186E-03	    1.211097E+00	    1.827242E+04	
    7.462649E-04	    1.096385E-02	    3.151524E-02	   -1.000000E+00	    1.256236E-02	    1.200000E-02	    8.750000E+02	    3.749038E-03	    7.593190E-03	    1.211098E+00	    1.827244E+04	
    2.507918E-03	    1.073630E-02	    3.096196E-02	   -1.000000E+00	    1.255016E-02	    1.200000E-02	    8.750000E+02	    3.667752E-03	    7.581558E-03	    1.234149E+00	    1.845893E+04	
    4.783465E-03	    1.005300E-02	    2.924075E-02	   -1.000000E+00	    1.251313E-02	    1.200000E-02	    8.750000E+02	    3.420885E-03	    7.530490E-03	    1.305445E+00	    1.898510E+04	
    7.362127E-03	    8.641385E-03	    2.560625E-02	   -1.000000E+00	    1.243657E-02	    1.200000E-02	    8.750000E+02	    2.910490E-03	    7.393864E-03	    1.479202E+00	    2.015357E+04	
    9.719104E-03	    6.478294E-03	    1.987397E-02	   -1.000000E+00	    1.231990E-02	    1.200000E-02	    8.750000E+02	    2.132641E-03	    7.087619E-03	    1.854956E+00	    2.233449E+04	
    1.133067E-02	    4.060663E-03	    1.317881E-02	   -1.000000E+00	    1.219129E-02	    1.200000E-02	    8.750000E+02	    1.275245E-03	    6.474822E-03	    2.588884E+00	    2.584253E+04	
    1.213856E-02	    2.095603E-03	    7.374593E-03	   -1.000000E+00	    1.209041E-02	    1.200000E-02	    8.750000E+02	    6.027269E-04	    5.447447E-03	    3.877180E+00	    3.105488E+04	
    1.245406E-02	    8.996977E-04	    3.495048E-03	   -1.000000E+00	    1.203368E-02	    1.200000E-02	    8.750000E+02	    2.245561E-04	    4.109956E-03	    5.923794E+00	    3.824870E+04	
    1.256144E-02	    3.309870E-04	    1.375124E-03	   -1.000000E+00	    1.201074E-02	    1.200000E-02	    8.750000E+02	    7.162446E-05	    3.092191E-03	    1.051288E+01	    4.393260E+04	
    1.259605E-02	    1.096049E-04	    3.469630E-04	   -1.000000E+00	    1.200505E-02	    1.200000E-02	    8.750000E+02	    3.363814E-05	    6.221841E-03	    9.062675E+01	    2.549291E+04	
    1.260299E-02	    6.188929E-05	    0.000000E+00	   -1.000000E+00	    1.200000E-02	    1.200000E-02	    8.750000E+02	    0.000000E+00	    0.000000E+00	    0.000000E+00	    0.000000E+00	
   -1.259947E-02	    6.127997E-05	    0.000000E+00	   -1.000000E+00	    1.200000E-02	    1.200000E-02	    8.750000E+02	    0.000000E+00	    0.000000E+00	    0.000000E+00	    0.000000E+00	
   -1.258981E-02	    1.085025E-04	    1.338633E-03	   -1.000000E+00	    1.211115E-02	    1.200000E-02	    8.750000E+02	    7.410127E-04	    6.121736E-03	    3.982668E+00	    2.516089E+04	
   -1.254267E-02	    3.273302E-04	    5.373757E-03	   -1.000000E+00	    1.201141E-02	    1.200000E-02	    8.750000E+02	    7.603723E-05	    2.679161E-03	    7.433990E+00	    4.382147E+04	
   -1.240360E-02	    8.874788E-04	    1.363288E-02	   -1.000000E+00	    1.203612E-02	    1.200000E-02	    8.750000E+02	    2.408006E-04	    3.182537E-03	    3.312377E+00	    3.803547E+04	
   -1.202462E-02	    2.056069E-03	    2.854114E-02	   -1.000000E+00	    1.212092E-02	    1.200000E-02	    8.750000E+02	    8.061071E-04	    4.131289E-03	    1.667359E+00	    3.024375E+04	
   -1.112638E-02	    3.949296E-03	    5.017791E-02	   -1.000000E+00	    1.238089E-02	    1.200000E-02	    8.750000E+02	    2.539281E-03	    5.517191E-03	    9.440080E-01	    2.355344E+04	
   -9.442504E-03	    6.233704E-03	    7.379590E-02	   -1.000000E+00	    1.292319E-02	    1.200000E-02	    8.750000E+02	    6.154606E-03	    7.146290E-03	    6.534488E-01	    1.848131E+04	
   -7.085276E-03	    8.236856E-03	    9.269787E-02	   -1.000000E+00	    1.356142E-02	    1.200000E-02	    8.750000E+02	    1.040949E-02	    8.420161E-03	    5.363671E-01	    1.535453E+04	
   -4.575478E-03	    9.523880E-03	    1.040424E-01	   -1.000000E+00	    1.402364E-02	    1.200000E-02	    8.750000E+02	    1.349091E-02	    9.146062E-03	    4.882898E-01	    1.375347E+04	
   -2.391804E-03	    1.014125E-02	    1.092411E-01	   -1.000000E+00	    1.425461E-02	    1.200000E-02	    8.750000E+02	    1.503072E-02	    9.465087E-03	    4.693751E-01	    1.306356E+04	
   -7.110158E-04	    1.034604E-02	    1.108830E-01	   -1.000000E+00	    1.433113E-02	    1.200000E-02	    8.750000E+02	    1.554088E-02	    9.561707E-03	    4.632823E-01	    1.283480E+04	
    7.110158E-04	    1.034604E-02	    1.108831E-01	   -1.000000E+00	    1.433113E-02	    1.200000E-02	    8.750000E+02	    1.554088E-02	    9.561710E-03	    4.632827E-01	    1.283482E+04	
    2.391804E-03	    1.014125E-02	    1.092414E-01	   -1.000000E+00	    1.425461E-02	    1.200000E-02	    8.750000E+02	    1.503071E-02	    9.465097E-03	    4.693763E-01	    1.306362E+04	
    4.575478E-03	    9.523880E-03	    1.040429E-01	   -1.000000E+00	    1.402363E-02	    1.200000E-02	    8.750000E+02	    1.349089E-02	    9.146079E-03	    4.882921E-01	    1.375361E+04	
    7.085276E-03	    8.236856E-03	    9.269865E-02	   -1.000000E+00	    1.356142E-02	    1.200000E-02	    8.750000E+02	    1.040944E-02	    8.420170E-03	    5.363707E-01	    1.535482E+04	
    9.442504E-03	    6.233704E-03	    7.379700E-02	   -1.000000E+00	    1.292318E-02	    1.200000E-02	    8.750000E+02	    6.154505E-03	    7.146247E-03	    6.534517E-01	    1.848192E+04	
    1.112638E-02	    3.949296E-03	    5.017923E-02	   -1.000000E+00	    1.238087E-02	    1.200000E-02	    8.750000E+02	    2.539129E-03	    5.516983E-03	    9.439935E-01	    2.355481E+04	
    1.202462E-02	    2.056069E-03	    2.854249E-02	   -1.000000E+00	    1.212089E-02	    1.200000E-02	    8.750000E+02	    8.059494E-04	    4.130648E-03	    1.667168E+00	    3.024681E+04	
    1.240360E-02	    8.874788E-04	    1.363484E-02	   -1.000000E+00	    1.203610E-02	    1.200000E-02	    8.750000E+02	    2.406687E-04	    3.180915E-03	    3.310817E+00	    3.804636E+04	
    1.254267E-02	    3.273302E-04	    5.380925E-03	   -1.000000E+00	    1.201141E-02	    1.200000E-02	    8.750000E+02	    7.607575E-05	    2.682456E-03	    7.448512E+00	    4.393714E+04	
    1.258981E-02	    1.085025E-04	    1.355754E-03	   -1.000000E+00	    1.211183E-02	    1.200000E-02	    8.750000E+02	    7.455094E-04	    6.196259E-03	    4.055614E+00	    2.579971E+04	
    1.259947E-02	    6.127997E-05	    0.000000E+00	   -1.000000E+00	    1.200000E-02	    1.200000E-02	    8.750000E+02	    0.000000E+00	    0.000000E+00	    0.000000E+00	    0.000000E+00	
   -1.259313E-02	    5.964944E-05	    0.000000E+00	   -1.000000E+00	    1.200000E-02	    1.200000E-02	    8.750000E+02	    0.000000E+00	    0.000000E+00	    0.000000E+00	    0.000000E+00	
   -1.257862E-02	    1.055745E-04	    3.138676E-03	   -1.000000E+00	    1.211105E-02	    1.200000E-02	    8.750000E+02	    7.403567E-04	    6.119418E-03	    3.983179E+00	    2.768384E+04	
   -1.250908E-02	    3.179270E-04	    1.263813E-02	   -1.000000E+00	    1.201510E-02	    1.200000E-02	    8.750000E+02	    1.006502E-04	    2.377825E-03	    4.423803E+00	    4.414872E+04	
   -1.231394E-02	    8.580513E-04	    3.195805E-02	   -1.000000E+00	    1.206721E-02	    1.200000E-02	    8.750000E+02	    4.480412E-04	    3.006056E-03	    1.588278E+00	    3.762529E+04	
   -1.182514E-02	    1.969150E-03	    6.602581E-02	   -1.000000E+00	    1.247289E-02	    1.200000E-02	    8.750000E+02	    3.152568E-03	    5.529748E-03	    7.638301E-01	    2.760518E+04	
   -1.077717E-02	    3.725433E-03	    1.117216E-01	   -1.000000E+00	    1.405994E-02	    1.200000E-02	    8.750000E+02	    1.373294E-02	    9.487646E-03	    5.161834E-01	    1.827570E+04	
   -8.983063E-03	    5.775499E-03	    1.559266E-01	   -1.000000E+00	    1.641257E-02	    1.200000E-02	    8.750000E+02	    2.941711E-02	    1.270352E-02	    4.320149E-01	    1.224030E+04	
   -6.636761E-03	    7.513927E-03	    1.878001E-01	   -1.000000E+00	    1.834434E-02	    1.200000E-02	    8.750000E+02	    4.229562E-02	    1.447450E-02	    3.900878E-01	    9.145385E+03	
   -4.243863E-03	    8.602900E-03	    2.056870E-01	   -1.000000E+00	    1.948074E-02	    1.200000E-02	    8.750000E+02	    4.987159E-02	    1.526622E-02	    3.680106E-01	    7.737642E+03	
   -2.208080E-03	    9.117730E-03	    2.135930E-01	   -1.000000E+00	    1.999617E-02	    1.200000E-02	    8.750000E+02	    5.330780E-02	    1.556831E-02	    3.580490E-01	    7.168688E+03	
   -6.553833E-04	    9.287446E-03	    2.160441E-01	   -1.000000E+00	    2.015941E-02	    1.200000E-02	    8.750000E+02	    5.439607E-02	    1.565348E-02	    3.547356E-01	    6.988998E+03	
    6.553833E-04	    9.287446E-03	    2.160443E-01	   -1.000000E+00	    2.015941E-02	    1.200000E-02	    8.750000E+02	    5.439605E-02	    1.565348E-02	    3.547360E-01	    6.989012E+03	
    2.208080E-03	    9.117730E-03	    2.135935E-01	   -1.000000E+00	    1.999616E-02	    1.200000E-02	    8.750000E+02	    5.330772E-02	    1.556832E-02	    3.580503E-01	    7.168734E+03	
    4.243863E-03	    8.602900E-03	    2.056881E-01	   -1.000000E+00	    1.948071E-02	    1.200000E-02	    8.750000E+02	    4.987143E-02	    1.526625E-02	    3.680131E-01	    7.737743E+03	
    6.636761E-03	    7.513927E-03	    1.878019E-01	   -1.000000E+00	    1.834430E-02	    1.200000E-02	    8.750000E+02	    4.229533E-02	    1.447452E-02	    3.900917E-01	    9.145600E+03	
    8.983063E-03	    5.775499E-03	    1.559292E-01	   -1.000000E+00	    1.641248E-02	    1.200000E-02	    8.750000E+02	    2.941657E-02	    1.270345E-02	    4.320182E-01	    1.224080E+04	
    1.077717E-02	    3.725433E-03	    1.117249E-01	   -1.000000E+00	    1.405979E-02	    1.200000E-02	    8.750000E+02	    1.373196E-02	    9.487191E-03	    5.161707E-01	    1.827704E+04	
    1.182514E-02	    1.969150E-03	    6.602920E-02	   -1.000000E+00	    1.247271E-02	    1.200000E-02	    8.750000E+02	    3.151388E-03	    5.528226E-03	    7.636956E-01	    2.760868E+04	
    1.231394E-02	    8.580513E-04	    3.196269E-02	   -1.000000E+00	    1.206711E-02	    1.200000E-02	    8.750000E+02	    4.473975E-04	    3.003014E-03	    1.587346E+00	    3.763608E+04	
    1.250908E-02	    3.179270E-04	    1.265503E-02	   -1.000000E+00	    1.201510E-02	    1.200000E-02	    8.750000E+02	    1.006387E-04	    2.379901E-03	    4.432037E+00	    4.425899E+04	
    1.257862E-02	    1.055745E-04	    3.179163E-03	   -1.000000E+00	    1.211173E-02	    1.200000E-02	    8.750000E+02	    7.448419E-04	    6.193786E-03	    4.056009E+00	    2.835230E+04	
    1.259313E-02	    5.964944E-05	    0.000000E+00	   -1.000000E+00	    1.200000E-02	    1.200000E-02	    8.750000E+02	    0.000000E+00	    0.000000E+00	    0.000000E+00	    0.000000E+00	
   -1.258323E-02	    5.557730E-05	    0.000000E+00	   -1.000000E+00	    1.200000E-02	    1.200000E-02	    8.750000E+02	    0.000000E+00	    0.000000E+00	    0.000000E+00	    0.000000E+00	
   -1.256112E-02	    9.830767E-05	    6.023331E-03	   -1.000000E+00	    1.211185E-02	    1.200000E-02	    8.750000E+02	    7.456862E-04	    6.221377E-03	    4.087592E+00	    3.657246E+04	
   -1.245682E-02	    2.952175E-04	    2.426908E-02	   -1.000000E+00	    1.203238E-02	    1.200000E-02	    8.750000E+02	    2.158781E-04	    2.610612E-03	    2.486146E+00	    4.531915E+04	
   -1.217608E-02	    7.911461E-04	    6.090581E-02	   -1.000000E+00	    1.229070E-02	    1.200000E-02	    8.750000E+02	    1.937973E-03	    4.629199E-03	    8.707922E-01	    3.583420E+04	
   -1.152567E-02	    1.789664E-03	    1.208382E-01	   -1.000000E+00	    1.419110E-02	    1.200000E-02	    8.750000E+02	    1.460734E-02	    9.909652E-03	    5.294150E-01	    2.178738E+04	
   -1.027222E-02	    3.311077E-03	    1.901915E-01	   -1.000000E+00	    1.789070E-02	    1.200000E-02	    8.750000E+02	    3.927136E-02	    1.475776E-02	    4.367323E-01	    1.175019E+04	
   -8.346969E-03	    5.004108E-03	    2.494523E-01	   -1.000000E+00	    2.150304E-02	    1.200000E-02	    8.750000E+02	    6.335361E-02	    1.739765E-02	    3.762360E-01	    6.886349E+03	
   -6.038114E-03	    6.374481E-03	    2.892169E-01	   -1.000000E+00	    2.406583E-02	    1.200000E-02	    8.750000E+02	    8.043888E-02	    1.845173E-02	    3.333178E-01	    4.787149E+03	
   -3.811236E-03	    7.204140E-03	    3.106553E-01	   -1.000000E+00	    2.549865E-02	    1.200000E-02	    8.750000E+02	    8.999102E-02	    1.879316E-02	    3.090657E-01	    3.908780E+03	
   -1.970960E-03	    7.588966E-03	    3.199309E-01	   -1.000000E+00	    2.613568E-02	    1.200000E-02	    8.750000E+02	    9.423785E-02	    1.889037E-02	    2.981988E-01	    3.567071E+03	
   -5.838365E-04	    7.714804E-03	    3.227770E-01	   -1.000000E+00	    2.633475E-02	    1.200000E-02	    8.750000E+02	    9.556499E-02	    1.891242E-02	    2.947445E-01	    3.461849E+03	
    5.838365E-04	    7.714804E-03	    3.227773E-01	   -1.000000E+00	    2.633474E-02	    1.200000E-02	    8.750000E+02	    9.556492E-02	    1.891242E-02	    2.947448E-01	    3.461858E+03	
    1.970960E-03	    7.588966E-03	    3.199319E-01	   -1.000000E+00	    2.613564E-02	    1.200000E-02	    8.750000E+02	    9.423759E-02	    1.889037E-02	    2.981999E-01	    3.567101E+03	
    3.811236E-03	    7.204140E-03	    3.106573E-01	   -1.000000E+00	    2.549857E-02	    1.200000E-02	    8.750000E+02	    8.999050E-02	    1.879317E-02	    3.090678E-01	    3.908847E+03	
    6.038114E-03	    6.374481E-03	    2.892202E-01	   -1.000000E+00	    2.406570E-02	    1.200000E-02	    8.750000E+02	    8.043798E-02	    1.845171E-02	    3.333211E-01	    4.787292E+03	
    8.346969E-03	    5.004108E-03	    2.494572E-01	   -1.000000E+00	    2.150282E-02	    1.200000E-02	    8.750000E+02	    6.335215E-02	    1.739752E-02	    3.762392E-01	    6.886702E+03	
    1.027222E-02	    3.311077E-03	    1.901983E-01	   -1.000000E+00	    1.789033E-02	    1.200000E-02	    8.750000E+02	    3.926886E-02	    1.475713E-02	    4.367231E-01	    1.175129E+04	
    1.152567E-02	    1.789664E-03	    1.208459E-01	   -1.000000E+00	    1.419041E-02	    1.200000E-02	    8.750000E+02	    1.460276E-02	    9.907138E-03	    5.293125E-01	    2.179118E+04	
    1.217608E-02	    7.911461E-04	    6.091515E-02	   -1.000000E+00	    1.229008E-02	    1.200000E-02	    8.750000E+02	    1.933896E-03	    4.622916E-03	    8.702609E-01	    3.584515E+04	
    1.245682E-02	    2.952175E-04	    2.430177E-02	   -1.000000E+00	    1.203232E-02	    1.200000E-02	    8.750000E+02	    2.154751E-04	    2.610874E-03	    2.491296E+00	    4.541108E+04	
    1.256112E-02	    9.830767E-05	    6.103982E-03	   -1.000000E+00	    1.211253E-02	    1.200000E-02	    8.750000E+02	    7.502307E-04	    6.297439E-03	    4.162782E+00	    3.735342E+04	
    1.258323E-02	    5.557730E-05	    0.000000E+00	   -1.000000E+00	    1.200000E-02	    1.200000E-02	    8.750000E+02	    0.000000E+00	    0.000000E+00	    0.000000E+00	    0.000000E+00	
   -1.257093E-02	    4.725077E-05	    0.000000E+00	   -1.000000E+00	    1.200000E-02	    1.200000E-02	    8.750000E+02	    0.000000E+00	    0.000000E+00	    0.000000E+00	    0.000000E+00	
   -1.253941E-02	    8.351653E-05	    9.760596E-03	   -1.000000E+00	    1.211432E-02	    1.200000E-02	    8.750000E+02	    7.621098E-04	    6.516067E-03	    4.387368E+00	    5.672089E+04	
   -1.239239E-02	    2.499345E-04	    3.934362E-02	   -1.000000E+00	    1.209661E-02	    1.200000E-02	    8.750000E+02	    6.440823E-04	    3.634464E-03	    1.615065E+00	    4.764912E+04	
   -1.200876E-02	    6.640238E-04	    9.689253E-02	   -1.000000E+00	    1.309691E-02	    1.200000E-02	    8.750000E+02	    7.312725E-03	    7.781615E-03	    6.520950E-01	    3.176717E+04	
   -1.117350E-02	    1.476491E-03	    1.805113E-01	   -1.000000E+00	    1.678601E-02	    1.200000E-02	    8.750000E+02	    3.190676E-02	    1.398244E-02	    4.825402E-01	    1.562651E+04	
   -9.706232E-03	    2.662513E-03	    2.672006E-01	   -1.000000E+00	    2.159844E-02	    1.200000E-02	    8.750000E+02	    6.398960E-02	    1.804550E-02	    4.007551E-01	    7.479240E+03	
   -7.670938E-03	    3.913656E-03	    3.368150E-01	   -1.000000E+00	    2.579582E-02	    1.200000E-02	    8.750000E+02	    9.197216E-02	    1.964702E-02	    3.305123E-01	    4.171525E+03	
   -5.428676E-03	    4.877236E-03	    3.814543E-01	   -1.000000E+00	    2.864230E-02	    1.200000E-02	    8.750000E+02	    1.109487E-01	    1.994541E-02	    2.823673E-01	    2.812364E+03	
   -3.382131E-03	    5.440553E-03	    4.047876E-01	   -1.000000E+00	    3.020740E-02	    1.200000E-02	    8.750000E+02	    1.213827E-01	    1.988231E-02	    2.564646E-01	    2.249313E+03	
   -1.738595E-03	    5.696910E-03	    4.147132E-01	   -1.000000E+00	    3.089964E-02	    1.200000E-02	    8.750000E+02	    1.259976E-01	    1.980896E-02	    2.452513E-01	    2.031109E+03	
   -5.140005E-04	    5.780075E-03	    4.177361E-01	   -1.000000E+00	    3.111514E-02	    1.200000E-02	    8.750000E+02	    1.274343E-01	    1.978025E-02	    2.417843E-01	    1.964319E+03	
    5.140005E-04	    5.780075E-03	    4.177366E-01	   -1.000000E+00	    3.111512E-02	    1.200000E-02	    8.750000E+02	    1.274341E-01	    1.978025E-02	    2.417844E-01	    1.964325E+03	
    1.738595E-03	    5.696910E-03	    4.147147E-01	   -1.000000E+00	    3.089956E-02	    1.200000E-02	    8.750000E+02	    1.259971E-01	    1.980893E-02	    2.452517E-01	    2.031128E+03	
    3.382131E-03	    5.440553E-03	    4.047906E-01	   -1.000000E+00	    3.020725E-02	    1.200000E-02	    8.750000E+02	    1.213817E-01	    1.988225E-02	    2.564652E-01	    2.249354E+03	
    5.428676E-03	    4.877236E-03	    3.814594E-01	   -1.000000E+00	    2.864204E-02	    1.200000E-02	    8.750000E+02	    1.109470E-01	    1.994528E-02	    2.823679E-01	    2.812453E+03	
    7.670938E-03	    3.913656E-03	    3.368229E-01	   -1.000000E+00	    2.579542E-02	    1.200000E-02	    8.750000E+02	    9.196944E-02	    1.964669E-02	    3.305110E-01	    4.171748E+03	
    9.706232E-03	    2.662513E-03	    2.672121E-01	   -1.000000E+00	    2.159775E-02	    1.200000E-02	    8.750000E+02	    6.398498E-02	    1.804454E-02	    4.007415E-01	    7.479982E+03	
    1.117350E-02	    1.476491E-03	    1.805262E-01	   -1.000000E+00	    1.678458E-02	    1.200000E-02	    8.750000E+02	    3.189720E-02	    1.397918E-02	    4.824604E-01	    1.562974E+04	
    1.200876E-02	    6.640238E-04	    9.691025E-02	   -1.000000E+00	    1.309451E-02	    1.200000E-02	    8.750000E+02	    7.296738E-03	    7.771926E-03	    6.518972E-01	    3.177701E+04	
    1.239239E-02	    2.499345E-04	    3.939759E-02	   -1.000000E+00	    1.209614E-02	    1.200000E-02	    8.750000E+02	    6.409099E-04	    3.631483E-03	    1.620398E+00	    4.769648E+04	
    1.253941E-02	    8.351653E-05	    9.905061E-03	   -1.000000E+00	    1.211503E-02	    1.200000E-02	    8.750000E+02	    7.668537E-04	    6.597440E-03	    4.469809E+00	    5.776725E+04	
    1.257093E-02	    4.725077E-05	    0.000000E+00	   -1.000000E+00	    1.200000E-02	    1.200000E-02	    8.750000E+02	    0.000000E+00	    0.000000E+00	    0.000000E+00	    0.000000E+00	
   -1.255990E-02	    3.476088E-05	    0.000000E+00	   -1.000000E+00	    1.200000E-02	    1.200000E-02	    8.750000E+02	    0.000000E+00	    0.000000E+00	    0.000000E+00	    0.000000E+00	
   -1.251998E-02	    6.139911E-05	    1.332582E-02	   -1.000000E+00	    1.211747E-02	    1.200000E-02	    8.750000E+02	    7.831535E-04	    6.897608E-03	    4.784104E+00	    8.520966E+04	
   -1.233512E-02	    1.831797E-04	    5.379218E-02	   -1.000000E+00	    1.222874E-02	    1.200000E-02	    8.750000E+02	    1.524945E-03	    5.038965E-03	    1.311230E+00	    5.001572E+04	
   -1.186244E-02	    4.829724E-04	    1.293536E-01	   -1.000000E+00	    1.417124E-02	    1.200000E-02	    8.750000E+02	    1.447491E-02	    1.055748E-02	    6.063949E-01	    2.731789E+04	
   -1.087522E-02	    1.058139E-03	    2.300881E-01	   -1.000000E+00	    1.882690E-02	    1.200000E-02	    8.750000E+02	    4.551270E-02	    1.643824E-02	    4.675505E-01	    1.187371E+04	
   -9.248793E-03	    1.868052E-03	    3.294029E-01	   -1.000000E+00	    2.412741E-02	    1.200000E-02	    8.750000E+02	    8.084943E-02	    1.953941E-02	    3.718746E-01	    5.455057E+03	
   -7.151051E-03	    2.686377E-03	    4.063983E-01	   -1.000000E+00	    2.852885E-02	    1.200000E-02	    8.750000E+02	    1.101923E-01	    2.025227E-02	    2.931207E-01	    2.961216E+03	
   -4.977694E-03	    3.292843E-03	    4.543094E-01	   -1.000000E+00	    3.144713E-02	    1.200000E-02	    8.750000E+02	    1.296475E-01	    1.998816E-02	    2.426790E-01	    1.939121E+03	
   -3.071691E-03	    3.638254E-03	    4.788386E-01	   -1.000000E+00	    3.304772E-02	    1.200000E-02	    8.750000E+02	    1.403181E-01	    1.964698E-02	    2.166348E-01	    1.514398E+03	
   -1.572213E-03	    3.793282E-03	    4.891577E-01	   -1.000000E+00	    3.375804E-02	    1.200000E-02	    8.750000E+02	    1.450536E-01	    1.946109E-02	    2.056157E-01	    1.349632E+03	
   -4.641626E-04	    3.843288E-03	    4.922859E-01	   -1.000000E+00	    3.397954E-02	    1.200000E-02	    8.750000E+02	    1.465303E-01	    1.939928E-02	    2.022528E-01	    1.299222E+03	
    4.641626E-04	    3.843288E-03	    4.922865E-01	   -1.000000E+00	    3.397951E-02	    1.200000E-02	    8.750000E+02	    1.465301E-01	    1.939926E-02	    2.022526E-01	    1.299224E+03	
    1.572213E-03	    3.793282E-03	    4.891597E-01	   -1.000000E+00	    3.375793E-02	    1.200000E-02	    8.750000E+02	    1.450528E-01	    1.946100E-02	    2.056149E-01	    1.349640E+03	
    3.071691E-03	    3.638254E-03	    4.788427E-01	   -1.000000E+00	    3.304750E-02	    1.200000E-02	    8.750000E+02	    1.403167E-01	    1.964680E-02	    2.166332E-01	    1.514415E+03	
    4.977694E-03	    3.292843E-03	    4.543164E-01	   -1.000000E+00	    3.144677E-02	    1.200000E-02	    8.750000E+02	    1.296451E-01	    1.998783E-02	    2.426755E-01	    1.939160E+03	
    7.151051E-03	    2.686377E-03	    4.064093E-01	   -1.000000E+00	    2.852827E-02	    1.200000E-02	    8.750000E+02	    1.101885E-01	    2.025162E-02	    2.931124E-01	    2.961321E+03	
    9.248793E-03	    1.868052E-03	    3.294194E-01	   -1.000000E+00	    2.412640E-02	    1.200000E-02	    8.750000E+02	    8.084265E-02	    1.953796E-02	    3.718504E-01	    5.455442E+03	
    1.087522E-02	    1.058139E-03	    2.301111E-01	   -1.000000E+00	    1.882466E-02	    1.200000E-02	    8.750000E+02	    4.549772E-02	    1.643427E-02	    4.674786E-01	    1.187569E+04	
    1.186244E-02	    4.829724E-04	    1.293828E-01	   -1.000000E+00	    1.416641E-02	    1.200000E-02	    8.750000E+02	    1.444270E-02	    1.054618E-02	    6.064466E-01	    2.732258E+04	
    1.233512E-02	    1.831797E-04	    5.386843E-02	   -1.000000E+00	    1.222692E-02	    1.200000E-02	    8.750000E+02	    1.512831E-03	    5.031861E-03	    1.318006E+00	    4.998336E+04	
    1.251998E-02	    6.139911E-05	    1.356280E-02	   -1.000000E+00	    1.211823E-02	    1.200000E-02	    8.750000E+02	    7.881957E-04	    6.986713E-03	    4.877107E+00	    8.668190E+04	
    1.255990E-02	    3.476088E-05	    0.000000E+00	   -1.000000E+00	    1.200000E-02	    1.200000E-02	    8.750000E+02	    0.000000E+00	    0.000000E+00	    0.000000E+00	    0.000000E+00	
   -1.255318E-02	    2.154085E-05	    0.000000E+00	   -1.000000E+00	    1.200000E-02	    1.200000E-02	    8.750000E+02	    0.000000E+00	    0.000000E+00	    0.000000E+00	    0.000000E+00	
   -1.250815E-02	    3.803261E-05	    1.572233E-02	   -1.000000E+00	    1.211927E-02	    1.200000E-02	    8.750000E+02	    7.951142E-04	    7.120445E-03	    5.021522E+00	    1.097793E+05	
   -1.230039E-02	    1.132551E-04	    6.371113E-02	   -1.000000E+00	    1.237003E-02	    1.200000E-02	    8.750000E+02	    2.466854E-03	    6.159279E-03	    1.211063E+00	    5.160432E+04	
   -1.177478E-02	    2.972392E-04	    1.511882E-01	   -1.000000E+00	    1.495177E-02	    1.200000E-02	    8.750000E+02	    1.967845E-02	    1.227958E-02	    6.034299E-01	    2.464099E+04	