Title="Field"
Variables="X","Y","DN","W","K","Omega","T","S","phi"
Zone I=52 J=52 F=POINT
   -1.214985E-02	    6.023331E-05	    0.000000E+00	    0.000000E+00	    0.000000E+00	    3.000436E+08	    0.000000E+00	    0.000000E+00	   -1.000000E+00	
   -1.214976E-02	    7.588291E-05	    0.000000E+00	    0.000000E+00	    0.000000E+00	    3.000436E+08	    0.000000E+00	    0.000000E+00	   -1.000000E+00	
   -1.214941E-02	    1.201401E-04	    0.000000E+00	    0.000000E+00	    0.000000E+00	    1.197037E+08	    0.000000E+00	    0.000000E+00	   -1.000000E+00	
   -1.214853E-02	    1.888273E-04	    0.000000E+00	    0.000000E+00	    0.000000E+00	    4.845851E+07	    0.000000E+00	    0.000000E+00	   -1.000000E+00	
   -1.214646E-02	    2.932945E-04	    0.000000E+00	    0.000000E+00	    0.000000E+00	    2.008711E+07	    0.000000E+00	    0.000000E+00	   -1.000000E+00	
   -1.214173E-02	    4.483582E-04	    0.000000E+00	    0.000000E+00	    0.000000E+00	    8.596322E+06	    0.000000E+00	    0.000000E+00	   -1.000000E+00	
   -1.213139E-02	    6.721802E-04	    0.000000E+00	    0.000000E+00	    0.000000E+00	    3.825127E+06	    0.000000E+00	    0.000000E+00	   -1.000000E+00	
   -1.210998E-02	    9.853662E-04	    0.000000E+00	    0.000000E+00	    0.000000E+00	    1.780320E+06	    0.000000E+00	    0.000000E+00	   -1.000000E+00	
   -1.206803E-02	    1.409021E-03	    0.000000E+00	    0.000000E+00	    0.000000E+00	    8.708866E+05	    0.000000E+00	    0.000000E+00	   -1.000000E+00	
   -1.199061E-02	    1.961617E-03	    0.000000E+00	    0.000000E+00	    0.000000E+00	    4.494715E+05	    0.000000E+00	    0.000000E+00	   -1.000000E+00	
   -1.185642E-02	    2.654785E-03	    0.000000E+00	    0.000000E+00	    0.000000E+00	    2.454938E+05	    0.000000E+00	    0.000000E+00	   -1.000000E+00	
   -1.163842E-02	    3.488546E-03	    0.000000E+00	    0.000000E+00	    0.000000E+00	    1.422371E+05	    0.000000E+00	    0.000000E+00	   -1.000000E+00	
   -1.130688E-02	    4.447146E-03	    0.000000E+00	    0.000000E+00	    0.000000E+00	    8.757327E+04	    0.000000E+00	    0.000000E+00	   -1.000000E+00	
   -1.083530E-02	    5.497181E-03	    0.000000E+00	    0.000000E+00	    0.000000E+00	    5.734680E+04	    0.000000E+00	    0.000000E+00	   -1.000000E+00	
   -1.020774E-02	    6.589752E-03	    0.000000E+00	    0.000000E+00	    0.000000E+00	    3.993156E+04	    0.000000E+00	    0.000000E+00	   -1.000000E+00	
   -9.425261E-03	    7.667289E-03	    0.000000E+00	    0.000000E+00	    0.000000E+00	    2.951429E+04	    0.000000E+00	    0.000000E+00	   -1.000000E+00	
   -8.508335E-03	    8.673589E-03	    0.000000E+00	    0.000000E+00	    0.000000E+00	    2.307611E+04	    0.000000E+00	    0.000000E+00	   -1.000000E+00	
   -7.493818E-03	    9.563768E-03	    0.000000E+00	    0.000000E+00	    0.000000E+00	    1.898972E+04	    0.000000E+00	    0.000000E+00	   -1.000000E+00	
   -6.427548E-03	    1.031066E-02	    0.000000E+00	    0.000000E+00	    0.000000E+00	    1.634503E+04	    0.000000E+00	    0.000000E+00	   -1.000000E+00	
   -5.355622E-03	    1.090598E-02	    0.000000E+00	    0.000000E+00	    0.000000E+00	    1.461417E+04	    0.000000E+00	    0.000000E+00	   -1.000000E+00	
   -4.317393E-03	    1.135708E-02	    0.000000E+00	    0.000000E+00	    0.000000E+00	    1.347970E+04	    0.000000E+00	    0.000000E+00	   -1.000000E+00	
   -3.341756E-03	    1.168143E-02	    0.000000E+00	    0.000000E+00	    0.000000E+00	    1.274384E+04	    0.000000E+00	    0.000000E+00	   -1.000000E+00	
   -2.446582E-03	    1.190115E-02	    0.000000E+00	    0.000000E+00	    0.000000E+00	    1.227914E+04	    0.000000E+00	    0.000000E+00	   -1.000000E+00	
   -1.640223E-03	    1.203880E-02	    0.000000E+00	    0.000000E+00	    0.000000E+00	    1.200087E+04	    0.000000E+00	    0.000000E+00	   -1.000000E+00	
   -9.238788E-04	    1.211485E-02	    0.000000E+00	    0.000000E+00	    0.000000E+00	    1.185119E+04	    0.000000E+00	    0.000000E+00	   -1.000000E+00	
   -2.939868E-04	    1.214647E-02	    0.000000E+00	    0.000000E+00	    0.000000E+00	    1.178978E+04	    0.000000E+00	    0.000000E+00	   -1.000000E+00	
    2.939868E-04	    1.214647E-02	    0.000000E+00	    0.000000E+00	    0.000000E+00	    1.178978E+04	    0.000000E+00	    0.000000E+00	   -1.000000E+00	
    9.238788E-04	    1.211485E-02	    0.000000E+00	    0.000000E+00	    0.000000E+00	    1.185119E+04	    0.000000E+00	    0.000000E+00	   -1.000000E+00	
    1.640223E-03	    1.203880E-02	    0.000000E+00	    0.000000E+00	    0.000000E+00	    1.200087E+04	    0.000000E+00	    0.000000E+00	   -1.000000E+00	
    2.446582E-03	    1.190115E-02	    0.000000E+00	    0.000000E+00	    0.000000E+00	    1.227914E+04	    0.000000E+00	    0.000000E+00	   -1.000000E+00	
    3.341756E-03	    1.168143E-02	    0.000000E+00	    0.000000E+00	    0.000000E+00	    1.274384E+04	    0.000000E+00	    0.000000E+00	   -1.000000E+00	
    4.317393E-03	    1.135708E-02	    0.000000E+00	    0.000000E+00	    0.000000E+00	    1.347970E+04	    0.000000E+00	    0.000000E+00	   -1.000000E+00	
    5.355622E-03	    1.090598E-02	    0.000000E+00	    0.000000E+00	    0.000000E+00	    1.461417E+04	    0.000000E+00	    0.000000E+00	   -1.000000E+00	
    6.427548E-03	    1.031066E-02	    0.000000E+00	    0.000000E+00	    0.000000E+00	    1.634503E+04	    0.000000E+00	    0.000000E+00	   -1.000000E+00	
    7.493818E-03	    9.563768E-03	    0.000000E+00	    0.000000E+00	    0.000000E+00	    1.898972E+04	    0.000000E+00	    0.000000E+00	   -1.000000E+00	
    8.508335E-03	    8.673589E-03	    0.000000E+00	    0.000000E+00	    0.000000E+00	    2.307611E+04	    0.000000E+00	    0.000000E+00	   -1.000000E+00	
    9.425261E-03	    7.667289E-03	    0.000000E+00	    0.000000E+00	    0.000000E+00	    2.951429E+04	    0.000000E+00	    0.000000E+00	   -1.000000E+00	
    1.020774E-02	    6.589752E-03	    0.000000E+00	    0.000000E+00	    0.000000E+00	    3.993156E+04	    0.000000E+00	    0.000000E+00	   -1.000000E+00	
    1.083530E-02	    5.497181E-03	    0.000000E+00	    0.000000E+00	    0.000000E+00	    5.734680E+04	    0.000000E+00	    0.000000E+00	   -1.000000E+00	
    1.130688E-02	    4.447146E-03	    0.000000E+00	    0.000000E+00	    0.000000E+00	    8.757327E+04	    0.000000E+00	    0.000000E+00	   -1.000000E+00	
    1.163842E-02	    3.488546E-03	    0.000000E+00	    0.000000E+00	    0.000000E+00	    1.422371E+05	    0.000000E+00	    0.000000E+00	   -1.000000E+00	
    1.185642E-02	    2.654785E-03	    0.000000E+00	    0.000000E+00	    0.000000E+00	    2.454938E+05	    0.000000E+00	    0.000000E+00	   -1.000000E+00	
    1.199061E-02	    1.961617E-03	    0.000000E+00	    0.000000E+00	    0.000000E+00	    4.494715E+05	    0.000000E+00	    0.000000E+00	   -1.000000E+00	
    1.206803E-02	    1.409021E-03	    0.000000E+00	    0.000000E+00	    0.000000E+00	    8.708866E+05	    0.000000E+00	    0.000000E+00	   -1.000000E+00	
    1.210998E-02	    9.853662E-04	    0.000000E+00	    0.000000E+00	    0.000000E+00	    1.780320E+06	    0.000000E+00	    0.000000E+00	   -1.000000E+00	
    1.213139E-02	    6.721802E-04	    0.000000E+00	    0.000000E+00	    0.000000E+00	    3.825127E+06	    0.000000E+00	    0.000000E+00	   -1.000000E+00	
    1.214173E-02	    4.483582E-04	    0.000000E+00	    0.000000E+00	    0.000000E+00	    8.596322E+06	    0.000000E+00	    0.000000E+00	   -1.000000E+00	
    1.214646E-02	    2.932945E-04	    0.000000E+00	    0.000000E+00	    0.000000E+00	    2.008711E+07	    0.000000E+00	    0.000000E+00	   -1.000000E+00	
    1.214853E-02	    1.888273E-04	    0.000000E+00	    0.000000E+00	    0.000000E+00	    4.845851E+07	    0.000000E+00	    0.000000E+00	   -1.000000E+00	
    1.214941E-02	    1.201401E-04	    0.000000E+00	    0.000000E+00	    0.000000E+00	    1.197037E+08	    0.000000E+00	    0.000000E+00	   -1.000000E+00	
    1.214976E-02	    7.588291E-05	    0.000000E+00	    0.000000E+00	    0.000000E+00	    3.000436E+08	    0.000000E+00	    0.000000E+00	   -1.000000E+00	
    1.214985E-02	    6.023331E-05	    0.000000E+00	    0.000000E+00	    0.000000E+00	    3.000436E+08	    0.000000E+00	    0.000000E+00	   -1.000000E+00	
   -1.214944E-02	    6.022988E-05	    0.000000E+00	    0.000000E+00	    0.000000E+00	    3.000436E+08	    0.000000E+00	    0.000000E+00	   -1.000000E+00	
   -1.214925E-02	    7.587793E-05	    5.163603E-07	    1.777970E-05	    3.623516E-11	    3.000436E+08	    0.000000E+00	    1.186050E+03	   -1.000000E+00	
   -1.214859E-02	    1.201292E-04	    8.175066E-07	    5.676062E-05	    9.243769E-11	    1.197037E+08	    0.000000E+00	    4.819098E+03	   -1.000000E+00	
   -1.214725E-02	    1.888030E-04	    1.284872E-06	    1.068848E-04	    3.277016E-10	    4.845851E+07	    0.000000E+00	    6.916865E+03	   -1.000000E+00	
   -1.214447E-02	    2.932395E-04	    1.995659E-06	    1.768605E-04	    8.974013E-10	    2.008711E+07	    0.000000E+00	    7.849048E+03	   -1.000000E+00	
   -1.213868E-02	    4.482353E-04	    3.050624E-06	    2.770011E-04	    2.202043E-09	    8.596322E+06	    0.000000E+00	    8.237773E+03	   -1.000000E+00	
   -1.212683E-02	    6.719117E-04	    4.573220E-06	    4.192890E-04	    5.048007E-09	    3.825127E+06	    0.000000E+00	    8.395682E+03	   -1.000000E+00	
   -1.210330E-02	    9.847999E-04	    6.703412E-06	    6.168056E-04	    1.093346E-08	    1.780320E+06	    0.000000E+00	    8.452101E+03	   -1.000000E+00	
   -1.205851E-02	    1.407877E-03	    9.584383E-06	    8.824390E-04	    2.240625E-08	    8.708866E+05	    0.000000E+00	    8.456857E+03	   -1.000000E+00	
   -1.197745E-02	    1.959419E-03	    1.334117E-05	    1.226674E-03	    4.334655E-08	    4.494715E+05	    0.000000E+00	    8.426604E+03	   -1.000000E+00	
   -1.183882E-02	    2.650782E-03	    1.805197E-05	    1.655702E-03	    7.913752E-08	    2.454938E+05	    0.000000E+00	    8.375442E+03	   -1.000000E+00	
   -1.161572E-02	    3.481663E-03	    2.371585E-05	    2.167880E-03	    1.360323E-07	    1.422371E+05	    0.000000E+00	    8.307862E+03	   -1.000000E+00	
   -1.127879E-02	    4.435994E-03	    3.022451E-05	    2.751610E-03	    2.198394E-07	    8.757327E+04	    0.000000E+00	    8.227276E+03	   -1.000000E+00	
   -1.080204E-02	    5.480181E-03	    3.734999E-05	    3.386630E-03	    3.341946E-07	    5.734680E+04	    0.000000E+00	    8.146772E+03	   -1.000000E+00	
   -1.017021E-02	    6.565368E-03	    4.475970E-05	    4.044515E-03	    4.784793E-07	    3.993156E+04	    0.000000E+00	    8.075765E+03	   -1.000000E+00	
   -9.384960E-03	    7.634329E-03	    5.206303E-05	    4.685890E-03	    6.446373E-07	    2.951429E+04	    0.000000E+00	    7.997197E+03	   -1.000000E+00	
   -8.467203E-03	    8.631459E-03	    5.887957E-05	    5.283067E-03	    8.223498E-07	    2.307611E+04	    0.000000E+00	    7.933936E+03	   -1.000000E+00	
   -7.453892E-03	    9.512594E-03	    6.490633E-05	    5.814849E-03	    9.996030E-07	    1.898972E+04	    0.000000E+00	    7.897182E+03	   -1.000000E+00	
   -6.390644E-03	    1.025122E-02	    6.996068E-05	    6.260824E-03	    1.162154E-06	    1.634503E+04	    0.000000E+00	    7.869629E+03	   -1.000000E+00	
   -5.323108E-03	    1.083952E-02	    7.398784E-05	    6.605808E-03	    1.296246E-06	    1.461417E+04	    0.000000E+00	    7.824323E+03	   -1.000000E+00	
   -4.290105E-03	    1.128503E-02	    7.703849E-05	    6.866156E-03	    1.402518E-06	    1.347970E+04	    0.000000E+00	    7.790386E+03	   -1.000000E+00	
   -3.320035E-03	    1.160523E-02	    7.923151E-05	    7.053540E-03	    1.481748E-06	    1.274384E+04	    0.000000E+00	    7.767827E+03	   -1.000000E+00	
   -2.430383E-03	    1.182207E-02	    8.071687E-05	    7.180657E-03	    1.536813E-06	    1.227914E+04	    0.000000E+00	    7.753541E+03	   -1.000000E+00	
   -1.629238E-03	    1.195790E-02	    8.164735E-05	    7.260327E-03	    1.571870E-06	    1.200087E+04	    0.000000E+00	    7.744885E+03	   -1.000000E+00	
   -9.176524E-04	    1.203292E-02	    8.216136E-05	    7.304241E-03	    1.591374E-06	    1.185119E+04	    0.000000E+00	    7.739963E+03	   -1.000000E+00	
   -2.920003E-04	    1.206412E-02	    8.237507E-05	    7.322271E-03	    1.599419E-06	    1.178978E+04	    0.000000E+00	    7.737444E+03	   -1.000000E+00	
    2.920003E-04	    1.206412E-02	    8.237507E-05	    7.322269E-03	    1.599418E-06	    1.178978E+04	    0.000000E+00	    7.737442E+03	   -1.000000E+00	
    9.176524E-04	    1.203292E-02	    8.216136E-05	    7.304237E-03	    1.591373E-06	    1.185119E+04	    0.000000E+00	    7.739955E+03	   -1.000000E+00	
    1.629238E-03	    1.195790E-02	    8.164735E-05	    7.260321E-03	    1.571867E-06	    1.200087E+04	    0.000000E+00	    7.744871E+03	   -1.000000E+00	
    2.430383E-03	    1.182207E-02	    8.071687E-05	    7.180649E-03	    1.536809E-06	    1.227914E+04	    0.000000E+00	    7.753523E+03	   -1.000000E+00	
    3.320035E-03	    1.160523E-02	    7.923151E-05	    7.053530E-03	    1.481744E-06	    1.274384E+04	    0.000000E+00	    7.767805E+03	   -1.000000E+00	
    4.290105E-03	    1.128503E-02	    7.703849E-05	    6.866145E-03	    1.402513E-06	    1.347970E+04	    0.000000E+00	    7.790361E+03	   -1.000000E+00	
    5.323108E-03	    1.083952E-02	    7.398784E-05	    6.605796E-03	    1.296242E-06	    1.461417E+04	    0.000000E+00	    7.824296E+03	   -1.000000E+00	
    6.390644E-03	    1.025122E-02	    6.996068E-05	    6.260812E-03	    1.162150E-06	    1.634503E+04	    0.000000E+00	    7.869600E+03	   -1.000000E+00	
    7.453892E-03	    9.512594E-03	    6.490633E-05	    5.814837E-03	    9.995989E-07	    1.898972E+04	    0.000000E+00	    7.897151E+03	   -1.000000E+00	
    8.467203E-03	    8.631459E-03	    5.887957E-05	    5.283057E-03	    8.223464E-07	    2.307611E+04	    0.000000E+00	    7.933903E+03	   -1.000000E+00	
    9.384960E-03	    7.634329E-03	    5.206303E-05	    4.685880E-03	    6.446344E-07	    2.951429E+04	    0.000000E+00	    7.997162E+03	   -1.000000E+00	
    1.017021E-02	    6.565368E-03	    4.475970E-05	    4.044506E-03	    4.784771E-07	    3.993156E+04	    0.000000E+00	    8.075729E+03	   -1.000000E+00	
    1.080204E-02	    5.480181E-03	    3.734999E-05	    3.386623E-03	    3.341932E-07	    5.734680E+04	    0.000000E+00	    8.146737E+03	   -1.000000E+00	
    1.127879E-02	    4.435994E-03	    3.022451E-05	    2.751605E-03	    2.198385E-07	    8.757327E+04	    0.000000E+00	    8.227243E+03	   -1.000000E+00	
    1.161572E-02	    3.481663E-03	    2.371585E-05	    2.167876E-03	    1.360319E-07	    1.422371E+05	    0.000000E+00	    8.307835E+03	   -1.000000E+00	
    1.183882E-02	    2.650782E-03	    1.805197E-05	    1.655701E-03	    7.913738E-08	    2.454938E+05	    0.000000E+00	    8.375427E+03	   -1.000000E+00	
    1.197745E-02	    1.959419E-03	    1.334117E-05	    1.226674E-03	    4.334657E-08	    4.494715E+05	    0.000000E+00	    8.426608E+03	   -1.000000E+00	
    1.205851E-02	    1.407877E-03	    9.584383E-06	    8.824405E-04	    2.240634E-08	    8.708866E+05	    0.000000E+00	    8.456887E+03	   -1.000000E+00	
    1.210330E-02	    9.847999E-04	    6.703412E-06	    6.168078E-04	    1.093354E-08	    1.780320E+06	    0.000000E+00	    8.452160E+03	   -1.000000E+00	
    1.212683E-02	    6.719117E-04	    4.573220E-06	    4.192911E-04	    5.048060E-09	    3.825127E+06	    0.000000E+00	    8.395768E+03	   -1.000000E+00	
    1.213868E-02	    4.482353E-04	    3.050624E-06	    2.770028E-04	    2.202071E-09	    8.596322E+06	    0.000000E+00	    8.237879E+03	   -1.000000E+00	
    1.214447E-02	    2.932395E-04	    1.995659E-06	    1.768618E-04	    8.974147E-10	    2.008711E+07	    0.000000E+00	    7.849164E+03	   -1.000000E+00	
    1.214725E-02	    1.888030E-04	    1.284872E-06	    1.068856E-04	    3.277070E-10	    4.845851E+07	    0.000000E+00	    6.916977E+03	   -1.000000E+00	
    1.214859E-02	    1.201292E-04	    8.175066E-07	    5.676110E-05	    9.243928E-11	    1.197037E+08	    0.000000E+00	    4.819180E+03	   -1.000000E+00	
    1.214925E-02	    7.587793E-05	    5.163603E-07	    1.777986E-05	    3.623584E-11	    3.000436E+08	    0.000000E+00	    1.186071E+03	   -1.000000E+00	
    1.214944E-02	    6.022988E-05	    0.000000E+00	    0.000000E+00	    0.000000E+00	    3.000436E+08	    0.000000E+00	    0.000000E+00	   -1.000000E+00	
   -1.214849E-02	    6.021126E-05	    0.000000E+00	    0.000000E+00	    0.000000E+00	    3.267227E+05	    0.000000E+00	    0.000000E+00	   -1.000000E+00	
   -1.214805E-02	    7.585293E-05	    1.711289E-06	    5.890667E-05	    6.659959E-10	    3.267227E+05	    0.000000E+00	    1.195860E+03	   -1.000000E+00	
   -1.214670E-02	    1.200827E-04	    2.709252E-06	    1.880679E-04	    1.267101E-11	    1.667848E+07	    0.000000E+00	    4.820985E+03	   -1.000000E+00	
   -1.214428E-02	    1.887132E-04	    4.257933E-06	    3.541199E-04	    4.371511E-11	    6.754295E+06	    0.000000E+00	    6.914643E+03	   -1.000000E+00	
   -1.213985E-02	    2.930603E-04	    6.612957E-06	    5.858707E-04	    1.227570E-10	    2.800221E+06	    0.000000E+00	    7.843585E+03	   -1.000000E+00	
   -1.213163E-02	    4.478715E-04	    1.010775E-05	    9.173874E-04	    3.140589E-10	    1.198628E+06	    0.000000E+00	    8.228634E+03	   -1.000000E+00	
   -1.211628E-02	    6.711719E-04	    1.515043E-05	    1.388157E-03	    7.689342E-10	    5.335318E+05	    0.000000E+00	    8.381677E+03	   -1.000000E+00	
   -1.208787E-02	    9.833172E-04	    2.220296E-05	    2.041114E-03	    1.835222E-09	    2.484472E+05	    0.000000E+00	    8.431469E+03	   -1.000000E+00	
   -1.203655E-02	    1.404988E-03	    3.173659E-05	    2.918256E-03	    4.272694E-09	    1.217432E+05	    0.000000E+00	    8.427355E+03	   -1.000000E+00	
   -1.194711E-02	    1.954004E-03	    4.416061E-05	    4.053218E-03	    9.187097E-09	    6.556373E+04	    0.000000E+00	    8.385573E+03	   -1.000000E+00	
   -1.179828E-02	    2.641095E-03	    5.972717E-05	    5.464991E-03	    1.988520E-08	    3.584582E+04	    0.000000E+00	    8.320006E+03	   -1.000000E+00	
   -1.156354E-02	    3.465221E-03	    7.842471E-05	    7.146296E-03	    4.088939E-08	    2.079401E+04	    0.000000E+00	    8.235097E+03	   -1.000000E+00	
   -1.121432E-02	    4.409616E-03	    9.988640E-05	    9.056947E-03	    7.885738E-08	    1.282125E+04	    0.000000E+00	    8.134382E+03	   -1.000000E+00	
   -1.072586E-02	    5.440273E-03	    1.233518E-04	    1.112871E-02	    1.417270E-07	    8.410326E+03	    0.000000E+00	    8.031293E+03	   -1.000000E+00	
   -1.008440E-02	    6.508469E-03	    1.477200E-04	    1.326765E-02	    2.368644E-07	    5.867842E+03	    0.000000E+00	    7.935714E+03	   -1.000000E+00	
   -9.293008E-03	    7.557782E-03	    1.717052E-04	    1.534504E-02	    3.629934E-07	    4.346638E+03	    0.000000E+00	    7.830658E+03	   -1.000000E+00	
   -8.373528E-03	    8.533993E-03	    1.940621E-04	    1.727248E-02	    5.171865E-07	    3.406509E+03	    0.000000E+00	    7.739848E+03	   -1.000000E+00	
   -7.363111E-03	    9.394568E-03	    2.138052E-04	    1.898379E-02	    6.906064E-07	    2.809977E+03	    0.000000E+00	    7.675663E+03	   -1.000000E+00	
   -6.306848E-03	    1.011447E-02	    2.303456E-04	    2.041506E-02	    8.642366E-07	    2.424089E+03	    0.000000E+00	    7.622397E+03	   -1.000000E+00	
   -5.249360E-03	    1.068687E-02	    2.435134E-04	    2.151819E-02	    1.009667E-06	    2.171644E+03	    0.000000E+00	    7.554271E+03	   -1.000000E+00	
   -4.228261E-03	    1.111978E-02	    2.534817E-04	    2.234906E-02	    1.130654E-06	    2.006265E+03	    0.000000E+00	    7.501999E+03	   -1.000000E+00	
   -3.270837E-03	    1.143062E-02	    2.606442E-04	    2.294624E-02	    1.224453E-06	    1.899045E+03	    0.000000E+00	    7.465489E+03	   -1.000000E+00	
   -2.393705E-03	    1.164097E-02	    2.654937E-04	    2.335096E-02	    1.291477E-06	    1.831358E+03	    0.000000E+00	    7.441343E+03	   -1.000000E+00	
   -1.604373E-03	    1.177267E-02	    2.685310E-04	    2.360445E-02	    1.334938E-06	    1.790836E+03	    0.000000E+00	    7.426337E+03	   -1.000000E+00	
   -9.035607E-04	    1.184540E-02	    2.702086E-04	    2.374411E-02	    1.359393E-06	    1.769042E+03	    0.000000E+00	    7.417861E+03	   -1.000000E+00	
   -2.875049E-04	    1.187564E-02	    2.709061E-04	    2.380142E-02	    1.369534E-06	    1.760103E+03	    0.000000E+00	    7.413884E+03	   -1.000000E+00	
    2.875049E-04	    1.187564E-02	    2.709061E-04	    2.380141E-02	    1.369533E-06	    1.760103E+03	    0.000000E+00	    7.413882E+03	   -1.000000E+00	
    9.035607E-04	    1.184540E-02	    2.702086E-04	    2.374410E-02	    1.359389E-06	    1.769042E+03	    0.000000E+00	    7.417853E+03	   -1.000000E+00	
    1.604373E-03	    1.177267E-02	    2.685310E-04	    2.360443E-02	    1.334933E-06	    1.790836E+03	    0.000000E+00	    7.426324E+03	   -1.000000E+00	
    2.393705E-03	    1.164097E-02	    2.654937E-04	    2.335093E-02	    1.291470E-06	    1.831358E+03	    0.000000E+00	    7.441326E+03	   -1.000000E+00	
    3.270837E-03	    1.143062E-02	    2.606442E-04	    2.294620E-02	    1.224446E-06	    1.899045E+03	    0.000000E+00	    7.465468E+03	   -1.000000E+00	
    4.228261E-03	    1.111978E-02	    2.534817E-04	    2.234902E-02	    1.130647E-06	    2.006265E+03	    0.000000E+00	    7.501975E+03	   -1.000000E+00	
    5.249360E-03	    1.068687E-02	    2.435134E-04	    2.151816E-02	    1.009661E-06	    2.171644E+03	    0.000000E+00	    7.554244E+03	   -1.000000E+00	
    6.306848E-03	    1.011447E-02	    2.303456E-04	    2.041502E-02	    8.642307E-07	    2.424089E+03	    0.000000E+00	    7.622369E+03	   -1.000000E+00	
    7.363111E-03	    9.394568E-03	    2.138052E-04	    1.898375E-02	    6.906013E-07	    2.809977E+03	    0.000000E+00	    7.675632E+03	   -1.000000E+00	
    8.373528E-03	    8.533993E-03	    1.940621E-04	    1.727245E-02	    5.171825E-07	    3.406509E+03	    0.000000E+00	    7.739815E+03	   -1.000000E+00	
    9.293008E-03	    7.557782E-03	    1.717052E-04	    1.534501E-02	    3.629905E-07	    4.346638E+03	    0.000000E+00	    7.830623E+03	   -1.000000E+00	
    1.008440E-02	    6.508469E-03	    1.477200E-04	    1.326762E-02	    2.368625E-07	    5.867842E+03	    0.000000E+00	    7.935678E+03	   -1.000000E+00	
    1.072586E-02	    5.440273E-03	    1.233518E-04	    1.112869E-02	    1.417259E-07	    8.410326E+03	    0.000000E+00	    8.031258E+03	   -1.000000E+00	
    1.121432E-02	    4.409616E-03	    9.988640E-05	    9.056929E-03	    7.885682E-08	    1.282125E+04	    0.000000E+00	    8.134350E+03	   -1.000000E+00	
    1.156354E-02	    3.465221E-03	    7.842471E-05	    7.146284E-03	    4.088916E-08	    2.079401E+04	    0.000000E+00	    8.235070E+03	   -1.000000E+00	
    1.179828E-02	    2.641095E-03	    5.972717E-05	    5.464986E-03	    1.988515E-08	    3.584582E+04	    0.000000E+00	    8.319992E+03	   -1.000000E+00	
    1.194711E-02	    1.954004E-03	    4.416061E-05	    4.053220E-03	    9.187116E-09	    6.556373E+04	    0.000000E+00	    8.385578E+03	   -1.000000E+00	
    1.203655E-02	    1.404988E-03	    3.173659E-05	    2.918261E-03	    4.272730E-09	    1.217432E+05	    0.000000E+00	    8.427386E+03	   -1.000000E+00	
    1.208787E-02	    9.833172E-04	    2.220296E-05	    2.041122E-03	    1.835250E-09	    2.484472E+05	    0.000000E+00	    8.431529E+03	   -1.000000E+00	
    1.211628E-02	    6.711719E-04	    1.515043E-05	    1.388164E-03	    7.689502E-10	    5.335318E+05	    0.000000E+00	    8.381763E+03	   -1.000000E+00	
    1.213163E-02	    4.478715E-04	    1.010775E-05	    9.173933E-04	    3.140664E-10	    1.198628E+06	    0.000000E+00	    8.228740E+03	   -1.000000E+00	
    1.213985E-02	    2.930603E-04	    6.612957E-06	    5.858750E-04	    1.227600E-10	    2.800221E+06	    0.000000E+00	    7.843701E+03	   -1.000000E+00	
    1.214428E-02	    1.887132E-04	    4.257933E-06	    3.541227E-04	    4.371611E-11	    6.754295E+06	    0.000000E+00	    6.914755E+03	   -1.000000E+00	
    1.214670E-02	    1.200827E-04	    2.709252E-06	    1.880695E-04	    1.267127E-11	    1.667848E+07	    0.000000E+00	    4.821067E+03	   -1.000000E+00	
    1.214805E-02	    7.585293E-05	    1.711289E-06	    5.890718E-05	    6.660087E-10	    3.267227E+05	    0.000000E+00	    1.195881E+03	   -1.000000E+00	
    1.214849E-02	    6.021126E-05	    0.000000E+00	    0.000000E+00	    0.000000E+00	    3.267227E+05	    0.000000E+00	    0.000000E+00	   -1.000000E+00	
   -1.214725E-02	    6.016430E-05	    0.000000E+00	    0.000000E+00	    0.000000E+00	    3.267981E+05	    0.000000E+00	    0.000000E+00	   -1.000000E+00	
   -1.214649E-02	    7.579176E-05	    3.275811E-06	    1.127144E-04	    1.518231E-09	    3.267981E+05	    0.000000E+00	    1.226225E+03	   -1.000000E+00	
   -1.214422E-02	    1.199769E-04	    5.185953E-06	    3.598799E-04	    8.249951E-12	    4.398118E+06	    0.000000E+00	    4.830523E+03	   -1.000000E+00	
   -1.214039E-02	    1.885249E-04	    8.149908E-06	    6.775738E-04	    2.106399E-11	    1.782967E+06	    0.000000E+00	    6.914716E+03	   -1.000000E+00	
   -1.213382E-02	    2.927161E-04	    1.265643E-05	    1.120825E-03	    8.888812E-11	    7.393483E+05	    0.000000E+00	    7.837782E+03	   -1.000000E+00	
   -1.212242E-02	    4.472280E-04	    1.934251E-05	    1.754604E-03	    3.496413E-10	    3.165764E+05	    0.000000E+00	    8.217351E+03	   -1.000000E+00	
   -1.210249E-02	    6.699539E-04	    2.898686E-05	    2.654018E-03	    1.303378E-09	    1.409781E+05	    0.000000E+00	    8.363753E+03	   -1.000000E+00	
   -1.206773E-02	    9.810136E-04	    4.246902E-05	    3.900370E-03	    4.563189E-09	    6.568927E+04	    0.000000E+00	    8.404776E+03	   -1.000000E+00	
   -1.200792E-02	    1.400696E-03	    6.068293E-05	    5.572550E-03	    1.462978E-08	    3.220373E+04	    0.000000E+00	    8.389053E+03	   -1.000000E+00	
   -1.190762E-02	    1.946226E-03	    8.439946E-05	    7.732616E-03	    4.083201E-08	    1.708451E+04	    0.000000E+00	    8.332164E+03	   -1.000000E+00	
   -1.174564E-02	    2.627529E-03	    1.140839E-04	    1.041374E-02	    1.074067E-07	    9.356527E+03	    0.000000E+00	    8.247468E+03	   -1.000000E+00	
   -1.149594E-02	    3.442628E-03	    1.496936E-04	    1.359820E-02	    2.552910E-07	    5.440600E+03	    0.000000E+00	    8.138320E+03	   -1.000000E+00	
   -1.113102E-02	    4.373897E-03	    1.905070E-04	    1.720528E-02	    5.467617E-07	    3.366442E+03	    0.000000E+00	    8.005662E+03	   -1.000000E+00	
   -1.062775E-02	    5.386854E-03	    2.350572E-04	    2.110165E-02	    1.059679E-06	    2.219990E+03	    0.000000E+00	    7.857982E+03	   -1.000000E+00	
   -9.974232E-03	    6.433006E-03	    2.812402E-04	    2.510689E-02	    1.870146E-06	    1.560731E+03	    0.000000E+00	    7.698259E+03	   -1.000000E+00	
   -9.175330E-03	    7.457019E-03	    3.266175E-04	    2.897600E-02	    2.971231E-06	    1.167849E+03	    0.000000E+00	    7.504659E+03	   -1.000000E+00	
   -8.253992E-03	    8.406465E-03	    3.688434E-04	    3.254463E-02	    4.340968E-06	    9.263505E+02	    0.000000E+00	    7.303179E+03	   -1.000000E+00	
   -7.247567E-03	    9.240878E-03	    4.060757E-04	    3.569378E-02	    5.898497E-06	    7.740738E+02	    0.000000E+00	    7.115299E+03	   -1.000000E+00	
   -6.200423E-03	    9.937048E-03	    4.372278E-04	    3.831061E-02	    7.463455E-06	    6.761527E+02	    0.000000E+00	    6.941102E+03	   -1.000000E+00	
   -5.155856E-03	    1.048940E-02	    4.620016E-04	    4.031107E-02	    8.762811E-06	    6.123645E+02	    0.000000E+00	    6.772183E+03	   -1.000000E+00	
   -4.149951E-03	    1.090644E-02	    4.807404E-04	    4.180958E-02	    9.842148E-06	    5.707330E+02	    0.000000E+00	    6.640203E+03	   -1.000000E+00	
   -3.208598E-03	    1.120551E-02	    4.941964E-04	    4.288183E-02	    1.067771E-05	    5.438165E+02	    0.000000E+00	    6.544190E+03	   -1.000000E+00	
   -2.347335E-03	    1.140773E-02	    5.033034E-04	    4.360606E-02	    1.127390E-05	    5.268564E+02	    0.000000E+00	    6.478710E+03	   -1.000000E+00	
   -1.572948E-03	    1.153426E-02	    5.090054E-04	    4.405861E-02	    1.166005E-05	    5.167144E+02	    0.000000E+00	    6.437430E+03	   -1.000000E+00	
   -8.857557E-04	    1.160411E-02	    5.121544E-04	    4.430756E-02	    1.187717E-05	    5.112626E+02	    0.000000E+00	    6.414377E+03	   -1.000000E+00	
   -2.818253E-04	    1.163315E-02	    5.134634E-04	    4.440961E-02	    1.196717E-05	    5.090273E+02	    0.000000E+00	    6.404455E+03	   -1.000000E+00	
    2.818253E-04	    1.163315E-02	    5.134634E-04	    4.440960E-02	    1.196716E-05	    5.090273E+02	    0.000000E+00	    6.404453E+03	   -1.000000E+00	
    8.857557E-04	    1.160411E-02	    5.121544E-04	    4.430754E-02	    1.187714E-05	    5.112625E+02	    0.000000E+00	    6.414371E+03	   -1.000000E+00	
    1.572948E-03	    1.153426E-02	    5.090054E-04	    4.405857E-02	    1.166001E-05	    5.167144E+02	    0.000000E+00	    6.437420E+03	   -1.000000E+00	
    2.347335E-03	    1.140773E-02	    5.033034E-04	    4.360601E-02	    1.127384E-05	    5.268563E+02	    0.000000E+00	    6.478697E+03	   -1.000000E+00	
    3.208598E-03	    1.120551E-02	    4.941964E-04	    4.288177E-02	    1.067765E-05	    5.438164E+02	    0.000000E+00	    6.544174E+03	   -1.000000E+00	
    4.149951E-03	    1.090644E-02	    4.807404E-04	    4.180952E-02	    9.842082E-06	    5.707329E+02	    0.000000E+00	    6.640184E+03	   -1.000000E+00	
    5.155856E-03	    1.048940E-02	    4.620016E-04	    4.031100E-02	    8.762749E-06	    6.123644E+02	    0.000000E+00	    6.772162E+03	   -1.000000E+00	
    6.200423E-03	    9.937048E-03	    4.372278E-04	    3.831053E-02	    7.463400E-06	    6.761526E+02	    0.000000E+00	    6.941078E+03	   -1.000000E+00	
    7.247567E-03	    9.240878E-03	    4.060757E-04	    3.569371E-02	    5.898451E-06	    7.740736E+02	    0.000000E+00	    7.115272E+03	   -1.000000E+00	
    8.253992E-03	    8.406465E-03	    3.688434E-04	    3.254456E-02	    4.340931E-06	    9.263504E+02	    0.000000E+00	    7.303149E+03	   -1.000000E+00	
    9.175330E-03	    7.457019E-03	    3.266175E-04	    2.897593E-02	    2.971205E-06	    1.167849E+03	    0.000000E+00	    7.504626E+03	   -1.000000E+00	
    9.974232E-03	    6.433006E-03	    2.812402E-04	    2.510683E-02	    1.870129E-06	    1.560731E+03	    0.000000E+00	    7.698224E+03	   -1.000000E+00	