Title="Field"
Variables="X","Y","DN","W","K","Omega","T","S","phi"
Zone I=52 J=52 F=POINT
   -1.214985E-02	    6.023331E-05	    0.000000E+00	    0.000000E+00	    0.000000E+00	    0.000000E+00	    0.000000E+00	    0.000000E+00	   -1.000000E+00	
   -1.214976E-02	    7.588291E-05	    0.000000E+00	    0.000000E+00	    0.000000E+00	    0.000000E+00	    0.000000E+00	    0.000000E+00	   -1.000000E+00	
   -1.214941E-02	    1.201401E-04	    0.000000E+00	    0.000000E+00	    0.000000E+00	    0.000000E+00	    0.000000E+00	    0.000000E+00	   -1.000000E+00	
   -1.214853E-02	    1.888273E-04	    0.000000E+00	    0.000000E+00	    0.000000E+00	    0.000000E+00	    0.000000E+00	    0.000000E+00	   -1.000000E+00	
   -1.214646E-02	    2.932944E-04	    0.000000E+00	    0.000000E+00	    0.000000E+00	    0.000000E+00	    0.000000E+00	    0.000000E+00	   -1.000000E+00	
   -1.214172E-02	    4.483581E-04	    0.000000E+00	    0.000000E+00	    0.000000E+00	    0.000000E+00	    0.000000E+00	    0.000000E+00	   -1.000000E+00	
   -1.213139E-02	    6.721802E-04	    0.000000E+00	    0.000000E+00	    0.000000E+00	    0.000000E+00	    0.000000E+00	    0.000000E+00	   -1.000000E+00	
   -1.210998E-02	    9.853660E-04	    0.000000E+00	    0.000000E+00	    0.000000E+00	    0.000000E+00	    0.000000E+00	    0.000000E+00	   -1.000000E+00	
   -1.206802E-02	    1.409020E-03	    0.000000E+00	    0.000000E+00	    0.000000E+00	    0.000000E+00	    0.000000E+00	    0.000000E+00	   -1.000000E+00	
   -1.199060E-02	    1.961617E-03	    0.000000E+00	    0.000000E+00	    0.000000E+00	    0.000000E+00	    0.000000E+00	    0.000000E+00	   -1.000000E+00	
   -1.185642E-02	    2.654783E-03	    0.000000E+00	    0.000000E+00	    0.000000E+00	    0.000000E+00	    0.000000E+00	    0.000000E+00	   -1.000000E+00	
   -1.163841E-02	    3.488544E-03	    0.000000E+00	    0.000000E+00	    0.000000E+00	    0.000000E+00	    0.000000E+00	    0.000000E+00	   -1.000000E+00	
   -1.130687E-02	    4.447143E-03	    0.000000E+00	    0.000000E+00	    0.000000E+00	    0.000000E+00	    0.000000E+00	    0.000000E+00	   -1.000000E+00	
   -1.083529E-02	    5.497176E-03	    0.000000E+00	    0.000000E+00	    0.000000E+00	    0.000000E+00	    0.000000E+00	    0.000000E+00	   -1.000000E+00	
   -1.020773E-02	    6.589745E-03	    0.000000E+00	    0.000000E+00	    0.000000E+00	    0.000000E+00	    0.000000E+00	    0.000000E+00	   -1.000000E+00	
   -9.425249E-03	    7.667280E-03	    0.000000E+00	    0.000000E+00	    0.000000E+00	    0.000000E+00	    0.000000E+00	    0.000000E+00	   -1.000000E+00	
   -8.508323E-03	    8.673577E-03	    0.000000E+00	    0.000000E+00	    0.000000E+00	    0.000000E+00	    0.000000E+00	    0.000000E+00	   -1.000000E+00	
   -7.493806E-03	    9.563753E-03	    0.000000E+00	    0.000000E+00	    0.000000E+00	    0.000000E+00	    0.000000E+00	    0.000000E+00	   -1.000000E+00	
   -6.427537E-03	    1.031064E-02	    0.000000E+00	    0.000000E+00	    0.000000E+00	    0.000000E+00	    0.000000E+00	    0.000000E+00	   -1.000000E+00	
   -5.355612E-03	    1.090596E-02	    0.000000E+00	    0.000000E+00	    0.000000E+00	    0.000000E+00	    0.000000E+00	    0.000000E+00	   -1.000000E+00	
   -4.317385E-03	    1.135705E-02	    0.000000E+00	    0.000000E+00	    0.000000E+00	    0.000000E+00	    0.000000E+00	    0.000000E+00	   -1.000000E+00	
   -3.341750E-03	    1.168140E-02	    0.000000E+00	    0.000000E+00	    0.000000E+00	    0.000000E+00	    0.000000E+00	    0.000000E+00	   -1.000000E+00	
   -2.446578E-03	    1.190112E-02	    0.000000E+00	    0.000000E+00	    0.000000E+00	    0.000000E+00	    0.000000E+00	    0.000000E+00	   -1.000000E+00	
   -1.640220E-03	    1.203878E-02	    0.000000E+00	    0.000000E+00	    0.000000E+00	    0.000000E+00	    0.000000E+00	    0.000000E+00	   -1.000000E+00	
   -9.238769E-04	    1.211482E-02	    0.000000E+00	    0.000000E+00	    0.000000E+00	    0.000000E+00	    0.000000E+00	    0.000000E+00	   -1.000000E+00	
   -2.939862E-04	    1.214644E-02	    0.000000E+00	    0.000000E+00	    0.000000E+00	    0.000000E+00	    0.000000E+00	    0.000000E+00	   -1.000000E+00	
    2.939862E-04	    1.214644E-02	    0.000000E+00	    0.000000E+00	    0.000000E+00	    0.000000E+00	    0.000000E+00	    0.000000E+00	   -1.000000E+00	
    9.238769E-04	    1.211482E-02	    0.000000E+00	    0.000000E+00	    0.000000E+00	    0.000000E+00	    0.000000E+00	    0.000000E+00	   -1.000000E+00	
    1.640220E-03	    1.203878E-02	    0.000000E+00	    0.000000E+00	    0.000000E+00	    0.000000E+00	    0.000000E+00	    0.000000E+00	   -1.000000E+00	
    2.446578E-03	    1.190112E-02	    0.000000E+00	    0.000000E+00	    0.000000E+00	    0.000000E+00	    0.000000E+00	    0.000000E+00	   -1.000000E+00	
    3.341750E-03	    1.168140E-02	    0.000000E+00	    0.000000E+00	    0.000000E+00	    0.000000E+00	    0.000000E+00	    0.000000E+00	   -1.000000E+00	
    4.317385E-03	    1.135705E-02	    0.000000E+00	    0.000000E+00	    0.000000E+00	    0.000000E+00	    0.000000E+00	    0.000000E+00	   -1.000000E+00	
    5.355612E-03	    1.090596E-02	    0.000000E+00	    0.000000E+00	    0.000000E+00	    0.000000E+00	    0.000000E+00	    0.000000E+00	   -1.000000E+00	
    6.427537E-03	    1.031064E-02	    0.000000E+00	    0.000000E+00	    0.000000E+00	    0.000000E+00	    0.000000E+00	    0.000000E+00	   -1.000000E+00	
    7.493806E-03	    9.563753E-03	    0.000000E+00	    0.000000E+00	    0.000000E+00	    0.000000E+00	    0.000000E+00	    0.000000E+00	   -1.000000E+00	
    8.508323E-03	    8.673577E-03	    0.000000E+00	    0.000000E+00	    0.000000E+00	    0.000000E+00	    0.000000E+00	    0.000000E+00	   -1.000000E+00	
    9.425249E-03	    7.667280E-03	    0.000000E+00	    0.000000E+00	    0.000000E+00	    0.000000E+00	    0.000000E+00	    0.000000E+00	   -1.000000E+00	
    1.020773E-02	    6.589745E-03	    0.000000E+00	    0.000000E+00	    0.000000E+00	    0.000000E+00	    0.000000E+00	    0.000000E+00	   -1.000000E+00	
    1.083529E-02	    5.497176E-03	    0.000000E+00	    0.000000E+00	    0.000000E+00	    0.000000E+00	    0.000000E+00	    0.000000E+00	   -1.000000E+00	
    1.130687E-02	    4.447143E-03	    0.000000E+00	    0.000000E+00	    0.000000E+00	    0.000000E+00	    0.000000E+00	    0.000000E+00	   -1.000000E+00	
    1.163841E-02	    3.488544E-03	    0.000000E+00	    0.000000E+00	    0.000000E+00	    0.000000E+00	    0.000000E+00	    0.000000E+00	   -1.000000E+00	
    1.185642E-02	    2.654783E-03	    0.000000E+00	    0.000000E+00	    0.000000E+00	    0.000000E+00	    0.000000E+00	    0.000000E+00	   -1.000000E+00	
    1.199060E-02	    1.961617E-03	    0.000000E+00	    0.000000E+00	    0.000000E+00	    0.000000E+00	    0.000000E+00	    0.000000E+00	   -1.000000E+00	
    1.206802E-02	    1.409020E-03	    0.000000E+00	    0.000000E+00	    0.000000E+00	    0.000000E+00	    0.000000E+00	    0.000000E+00	   -1.000000E+00	
    1.210998E-02	    9.853660E-04	    0.000000E+00	    0.000000E+00	    0.000000E+00	    0.000000E+00	    0.000000E+00	    0.000000E+00	   -1.000000E+00	
    1.213139E-02	    6.721802E-04	    0.000000E+00	    0.000000E+00	    0.000000E+00	    0.000000E+00	    0.000000E+00	    0.000000E+00	   -1.000000E+00	
    1.214172E-02	    4.483581E-04	    0.000000E+00	    0.000000E+00	    0.000000E+00	    0.000000E+00	    0.000000E+00	    0.000000E+00	   -1.000000E+00	
    1.214646E-02	    2.932944E-04	    0.000000E+00	    0.000000E+00	    0.000000E+00	    0.000000E+00	    0.000000E+00	    0.000000E+00	   -1.000000E+00	
    1.214853E-02	    1.888273E-04	    0.000000E+00	    0.000000E+00	    0.000000E+00	    0.000000E+00	    0.000000E+00	    0.000000E+00	   -1.000000E+00	
    1.214941E-02	    1.201401E-04	    0.000000E+00	    0.000000E+00	    0.000000E+00	    0.000000E+00	    0.000000E+00	    0.000000E+00	   -1.000000E+00	
    1.214976E-02	    7.588291E-05	    0.000000E+00	    0.000000E+00	    0.000000E+00	    0.000000E+00	    0.000000E+00	    0.000000E+00	   -1.000000E+00	
    1.214985E-02	    6.023331E-05	    0.000000E+00	    0.000000E+00	    0.000000E+00	    0.000000E+00	    0.000000E+00	    0.000000E+00	   -1.000000E+00	
   -1.214944E-02	    6.022988E-05	    0.000000E+00	    0.000000E+00	    0.000000E+00	    0.000000E+00	    0.000000E+00	    0.000000E+00	   -1.000000E+00	
   -1.214925E-02	    7.587793E-05	    5.163596E-07	    0.000000E+00	    0.000000E+00	    0.000000E+00	    0.000000E+00	    0.000000E+00	   -1.000000E+00	
   -1.214859E-02	    1.201292E-04	    8.175056E-07	    0.000000E+00	    0.000000E+00	    0.000000E+00	    0.000000E+00	    0.000000E+00	   -1.000000E+00	
   -1.214725E-02	    1.888030E-04	    1.284871E-06	    0.000000E+00	    0.000000E+00	    0.000000E+00	    0.000000E+00	    0.000000E+00	   -1.000000E+00	
   -1.214446E-02	    2.932395E-04	    1.995656E-06	    0.000000E+00	    0.000000E+00	    0.000000E+00	    0.000000E+00	    0.000000E+00	   -1.000000E+00	
   -1.213868E-02	    4.482352E-04	    3.050620E-06	    0.000000E+00	    0.000000E+00	    0.000000E+00	    0.000000E+00	    0.000000E+00	   -1.000000E+00	
   -1.212683E-02	    6.719117E-04	    4.573214E-06	    0.000000E+00	    0.000000E+00	    0.000000E+00	    0.000000E+00	    0.000000E+00	   -1.000000E+00	
   -1.210330E-02	    9.847997E-04	    6.703402E-06	    0.000000E+00	    0.000000E+00	    0.000000E+00	    0.000000E+00	    0.000000E+00	   -1.000000E+00	
   -1.205851E-02	    1.407877E-03	    9.584369E-06	    0.000000E+00	    0.000000E+00	    0.000000E+00	    0.000000E+00	    0.000000E+00	   -1.000000E+00	
   -1.197744E-02	    1.959419E-03	    1.334115E-05	    0.000000E+00	    0.000000E+00	    0.000000E+00	    0.000000E+00	    0.000000E+00	   -1.000000E+00	
   -1.183881E-02	    2.650781E-03	    1.805194E-05	    0.000000E+00	    0.000000E+00	    0.000000E+00	    0.000000E+00	    0.000000E+00	   -1.000000E+00	
   -1.161571E-02	    3.481661E-03	    2.371580E-05	    0.000000E+00	    0.000000E+00	    0.000000E+00	    0.000000E+00	    0.000000E+00	   -1.000000E+00	
   -1.127878E-02	    4.435991E-03	    3.022445E-05	    0.000000E+00	    0.000000E+00	    0.000000E+00	    0.000000E+00	    0.000000E+00	   -1.000000E+00	
   -1.080204E-02	    5.480176E-03	    3.734991E-05	    0.000000E+00	    0.000000E+00	    0.000000E+00	    0.000000E+00	    0.000000E+00	   -1.000000E+00	
   -1.017020E-02	    6.565361E-03	    4.475960E-05	    0.000000E+00	    0.000000E+00	    0.000000E+00	    0.000000E+00	    0.000000E+00	   -1.000000E+00	
   -9.384948E-03	    7.634319E-03	    5.206290E-05	    0.000000E+00	    0.000000E+00	    0.000000E+00	    0.000000E+00	    0.000000E+00	   -1.000000E+00	
   -8.467191E-03	    8.631447E-03	    5.887941E-05	    0.000000E+00	    0.000000E+00	    0.000000E+00	    0.000000E+00	    0.000000E+00	   -1.000000E+00	
   -7.453881E-03	    9.512579E-03	    6.490615E-05	    0.000000E+00	    0.000000E+00	    0.000000E+00	    0.000000E+00	    0.000000E+00	   -1.000000E+00	
   -6.390633E-03	    1.025120E-02	    6.996047E-05	    0.000000E+00	    0.000000E+00	    0.000000E+00	    0.000000E+00	    0.000000E+00	   -1.000000E+00	
   -5.323098E-03	    1.083950E-02	    7.398761E-05	    0.000000E+00	    0.000000E+00	    0.000000E+00	    0.000000E+00	    0.000000E+00	   -1.000000E+00	
   -4.290097E-03	    1.128501E-02	    7.703825E-05	    0.000000E+00	    0.000000E+00	    0.000000E+00	    0.000000E+00	    0.000000E+00	   -1.000000E+00	
   -3.320029E-03	    1.160521E-02	    7.923126E-05	    0.000000E+00	    0.000000E+00	    0.000000E+00	    0.000000E+00	    0.000000E+00	   -1.000000E+00	
   -2.430378E-03	    1.182205E-02	    8.071661E-05	    0.000000E+00	    0.000000E+00	    0.000000E+00	    0.000000E+00	    0.000000E+00	   -1.000000E+00	
   -1.629235E-03	    1.195787E-02	    8.164709E-05	    0.000000E+00	    0.000000E+00	    0.000000E+00	    0.000000E+00	    0.000000E+00	   -1.000000E+00	
   -9.176506E-04	    1.203290E-02	    8.216110E-05	    0.000000E+00	    0.000000E+00	    0.000000E+00	    0.000000E+00	    0.000000E+00	   -1.000000E+00	
   -2.919998E-04	    1.206409E-02	    8.237481E-05	    0.000000E+00	    0.000000E+00	    0.000000E+00	    0.000000E+00	    0.000000E+00	   -1.000000E+00	
    2.919998E-04	    1.206409E-02	    8.237481E-05	    0.000000E+00	    0.000000E+00	    0.000000E+00	    0.000000E+00	    0.000000E+00	   -1.000000E+00	
    9.176506E-04	    1.203290E-02	    8.216110E-05	    0.000000E+00	    0.000000E+00	    0.000000E+00	    0.000000E+00	    0.000000E+00	   -1.000000E+00	
    1.629235E-03	    1.195787E-02	    8.164709E-05	    0.000000E+00	    0.000000E+00	    0.000000E+00	    0.000000E+00	    0.000000E+00	   -1.000000E+00	
    2.430378E-03	    1.182205E-02	    8.071661E-05	    0.000000E+00	    0.000000E+00	    0.000000E+00	    0.000000E+00	    0.000000E+00	   -1.000000E+00	
    3.320029E-03	    1.160521E-02	    7.923126E-05	    0.000000E+00	    0.000000E+00	    0.000000E+00	    0.000000E+00	    0.000000E+00	   -1.000000E+00	
    4.290097E-03	    1.128501E-02	    7.703825E-05	    0.000000E+00	    0.000000E+00	    0.000000E+00	    0.000000E+00	    0.000000E+00	   -1.000000E+00	
    5.323098E-03	    1.083950E-02	    7.398761E-05	    0.000000E+00	    0.000000E+00	    0.000000E+00	    0.000000E+00	    0.000000E+00	   -1.000000E+00	
    6.390633E-03	    1.025120E-02	    6.996047E-05	    0.000000E+00	    0.000000E+00	    0.000000E+00	    0.000000E+00	    0.000000E+00	   -1.000000E+00	
    7.453881E-03	    9.512579E-03	    6.490615E-05	    0.000000E+00	    0.000000E+00	    0.000000E+00	    0.000000E+00	    0.000000E+00	   -1.000000E+00	
    8.467191E-03	    8.631447E-03	    5.887941E-05	    0.000000E+00	    0.000000E+00	    0.000000E+00	    0.000000E+00	    0.000000E+00	   -1.000000E+00	
    9.384948E-03	    7.634319E-03	    5.206290E-05	    0.000000E+00	    0.000000E+00	    0.000000E+00	    0.000000E+00	    0.000000E+00	   -1.000000E+00	
    1.017020E-02	    6.565361E-03	    4.475960E-05	    0.000000E+00	    0.000000E+00	    0.000000E+00	    0.000000E+00	    0.000000E+00	   -1.000000E+00	
    1.080204E-02	    5.480176E-03	    3.734991E-05	    0.000000E+00	    0.000000E+00	    0.000000E+00	    0.000000E+00	    0.000000E+00	   -1.000000E+00	
    1.127878E-02	    4.435991E-03	    3.022445E-05	    0.000000E+00	    0.000000E+00	    0.000000E+00	    0.000000E+00	    0.000000E+00	   -1.000000E+00	
    1.161571E-02	    3.481661E-03	    2.371580E-05	    0.000000E+00	    0.000000E+00	    0.000000E+00	    0.000000E+00	    0.000000E+00	   -1.000000E+00	
    1.183881E-02	    2.650781E-03	    1.805194E-05	    0.000000E+00	    0.000000E+00	    0.000000E+00	    0.000000E+00	    0.000000E+00	   -1.000000E+00	
    1.197744E-02	    1.959419E-03	    1.334115E-05	    0.000000E+00	    0.000000E+00	    0.000000E+00	    0.000000E+00	    0.000000E+00	   -1.000000E+00	
    1.205851E-02	    1.407877E-03	    9.584369E-06	    0.000000E+00	    0.000000E+00	    0.000000E+00	    0.000000E+00	    0.000000E+00	   -1.000000E+00	
    1.210330E-02	    9.847997E-04	    6.703402E-06	    0.000000E+00	    0.000000E+00	    0.000000E+00	    0.000000E+00	    0.000000E+00	   -1.000000E+00	
    1.212683E-02	    6.719117E-04	    4.573214E-06	    0.000000E+00	    0.000000E+00	    0.000000E+00	    0.000000E+00	    0.000000E+00	   -1.000000E+00	
    1.213868E-02	    4.482352E-04	    3.050620E-06	    0.000000E+00	    0.000000E+00	    0.000000E+00	    0.000000E+00	    0.000000E+00	   -1.000000E+00	
    1.214446E-02	    2.932395E-04	    1.995656E-06	    0.000000E+00	    0.000000E+00	    0.000000E+00	    0.000000E+00	    0.000000E+00	   -1.000000E+00	
    1.214725E-02	    1.888030E-04	    1.284871E-06	    0.000000E+00	    0.000000E+00	    0.000000E+00	    0.000000E+00	    0.000000E+00	   -1.000000E+00	
    1.214859E-02	    1.201292E-04	    8.175056E-07	    0.000000E+00	    0.000000E+00	    0.000000E+00	    0.000000E+00	    0.000000E+00	   -1.000000E+00	
    1.214925E-02	    7.587793E-05	    5.163596E-07	    0.000000E+00	    0.000000E+00	    0.000000E+00	    0.000000E+00	    0.000000E+00	   -1.000000E+00	
    1.214944E-02	    6.022988E-05	    0.000000E+00	    0.000000E+00	    0.000000E+00	    0.000000E+00	    0.000000E+00	    0.000000E+00	   -1.000000E+00	
   -1.214849E-02	    6.021126E-05	    0.000000E+00	    0.000000E+00	    0.000000E+00	    0.000000E+00	    0.000000E+00	    0.000000E+00	   -1.000000E+00	
   -1.214805E-02	    7.585293E-05	    1.711287E-06	    0.000000E+00	    0.000000E+00	    0.000000E+00	    0.000000E+00	    0.000000E+00	   -1.000000E+00	
   -1.214670E-02	    1.200827E-04	    2.709249E-06	    0.000000E+00	    0.000000E+00	    0.000000E+00	    0.000000E+00	    0.000000E+00	   -1.000000E+00	
   -1.214428E-02	    1.887132E-04	    4.257927E-06	    0.000000E+00	    0.000000E+00	    0.000000E+00	    0.000000E+00	    0.000000E+00	   -1.000000E+00	
   -1.213985E-02	    2.930603E-04	    6.612948E-06	    0.000000E+00	    0.000000E+00	    0.000000E+00	    0.000000E+00	    0.000000E+00	   -1.000000E+00	
   -1.213163E-02	    4.478714E-04	    1.010774E-05	    0.000000E+00	    0.000000E+00	    0.000000E+00	    0.000000E+00	    0.000000E+00	   -1.000000E+00	
   -1.211628E-02	    6.711718E-04	    1.515041E-05	    0.000000E+00	    0.000000E+00	    0.000000E+00	    0.000000E+00	    0.000000E+00	   -1.000000E+00	
   -1.208787E-02	    9.833170E-04	    2.220293E-05	    0.000000E+00	    0.000000E+00	    0.000000E+00	    0.000000E+00	    0.000000E+00	   -1.000000E+00	
   -1.203654E-02	    1.404988E-03	    3.173654E-05	    0.000000E+00	    0.000000E+00	    0.000000E+00	    0.000000E+00	    0.000000E+00	   -1.000000E+00	
   -1.194710E-02	    1.954003E-03	    4.416054E-05	    0.000000E+00	    0.000000E+00	    0.000000E+00	    0.000000E+00	    0.000000E+00	   -1.000000E+00	
   -1.179828E-02	    2.641094E-03	    5.972707E-05	    0.000000E+00	    0.000000E+00	    0.000000E+00	    0.000000E+00	    0.000000E+00	   -1.000000E+00	
   -1.156353E-02	    3.465219E-03	    7.842457E-05	    0.000000E+00	    0.000000E+00	    0.000000E+00	    0.000000E+00	    0.000000E+00	   -1.000000E+00	
   -1.121431E-02	    4.409613E-03	    9.988620E-05	    0.000000E+00	    0.000000E+00	    0.000000E+00	    0.000000E+00	    0.000000E+00	   -1.000000E+00	
   -1.072585E-02	    5.440268E-03	    1.233516E-04	    0.000000E+00	    0.000000E+00	    0.000000E+00	    0.000000E+00	    0.000000E+00	   -1.000000E+00	
   -1.008439E-02	    6.508461E-03	    1.477196E-04	    0.000000E+00	    0.000000E+00	    0.000000E+00	    0.000000E+00	    0.000000E+00	   -1.000000E+00	
   -9.292997E-03	    7.557772E-03	    1.717047E-04	    0.000000E+00	    0.000000E+00	    0.000000E+00	    0.000000E+00	    0.000000E+00	   -1.000000E+00	
   -8.373516E-03	    8.533981E-03	    1.940616E-04	    0.000000E+00	    0.000000E+00	    0.000000E+00	    0.000000E+00	    0.000000E+00	   -1.000000E+00	
   -7.363100E-03	    9.394554E-03	    2.138046E-04	    0.000000E+00	    0.000000E+00	    0.000000E+00	    0.000000E+00	    0.000000E+00	   -1.000000E+00	
   -6.306838E-03	    1.011445E-02	    2.303449E-04	    0.000000E+00	    0.000000E+00	    0.000000E+00	    0.000000E+00	    0.000000E+00	   -1.000000E+00	
   -5.249351E-03	    1.068685E-02	    2.435126E-04	    0.000000E+00	    0.000000E+00	    0.000000E+00	    0.000000E+00	    0.000000E+00	   -1.000000E+00	
   -4.228253E-03	    1.111976E-02	    2.534809E-04	    0.000000E+00	    0.000000E+00	    0.000000E+00	    0.000000E+00	    0.000000E+00	   -1.000000E+00	
   -3.270831E-03	    1.143059E-02	    2.606433E-04	    0.000000E+00	    0.000000E+00	    0.000000E+00	    0.000000E+00	    0.000000E+00	   -1.000000E+00	
   -2.393701E-03	    1.164095E-02	    2.654929E-04	    0.000000E+00	    0.000000E+00	    0.000000E+00	    0.000000E+00	    0.000000E+00	   -1.000000E+00	
   -1.604370E-03	    1.177265E-02	    2.685301E-04	    0.000000E+00	    0.000000E+00	    0.000000E+00	    0.000000E+00	    0.000000E+00	   -1.000000E+00	
   -9.035590E-04	    1.184538E-02	    2.702077E-04	    0.000000E+00	    0.000000E+00	    0.000000E+00	    0.000000E+00	    0.000000E+00	   -1.000000E+00	
   -2.875043E-04	    1.187562E-02	    2.709052E-04	    0.000000E+00	    0.000000E+00	    0.000000E+00	    0.000000E+00	    0.000000E+00	   -1.000000E+00	
    2.875043E-04	    1.187562E-02	    2.709052E-04	    0.000000E+00	    0.000000E+00	    0.000000E+00	    0.000000E+00	    0.000000E+00	   -1.000000E+00	
    9.035590E-04	    1.184538E-02	    2.702077E-04	    0.000000E+00	    0.000000E+00	    0.000000E+00	    0.000000E+00	    0.000000E+00	   -1.000000E+00	
    1.604370E-03	    1.177265E-02	    2.685301E-04	    0.000000E+00	    0.000000E+00	    0.000000E+00	    0.000000E+00	    0.000000E+00	   -1.000000E+00	
    2.393701E-03	    1.164095E-02	    2.654929E-04	    0.000000E+00	    0.000000E+00	    0.000000E+00	    0.000000E+00	    0.000000E+00	   -1.000000E+00	
    3.270831E-03	    1.143059E-02	    2.606433E-04	    0.000000E+00	    0.000000E+00	    0.000000E+00	    0.000000E+00	    0.000000E+00	   -1.000000E+00	
    4.228253E-03	    1.111976E-02	    2.534809E-04	    0.000000E+00	    0.000000E+00	    0.000000E+00	    0.000000E+00	    0.000000E+00	   -1.000000E+00	
    5.249351E-03	    1.068685E-02	    2.435126E-04	    0.000000E+00	    0.000000E+00	    0.000000E+00	    0.000000E+00	    0.000000E+00	   -1.000000E+00	
    6.306838E-03	    1.011445E-02	    2.303449E-04	    0.000000E+00	    0.000000E+00	    0.000000E+00	    0.000000E+00	    0.000000E+00	   -1.000000E+00	
    7.363100E-03	    9.394554E-03	    2.138046E-04	    0.000000E+00	    0.000000E+00	    0.000000E+00	    0.000000E+00	    0.000000E+00	   -1.000000E+00	
    8.373516E-03	    8.533981E-03	    1.940616E-04	    0.000000E+00	    0.000000E+00	    0.000000E+00	    0.000000E+00	    0.000000E+00	   -1.000000E+00	
    9.292997E-03	    7.557772E-03	    1.717047E-04	    0.000000E+00	    0.000000E+00	    0.000000E+00	    0.000000E+00	    0.000000E+00	   -1.000000E+00	
    1.008439E-02	    6.508461E-03	    1.477196E-04	    0.000000E+00	    0.000000E+00	    0.000000E+00	    0.000000E+00	    0.000000E+00	   -1.000000E+00	
    1.072585E-02	    5.440268E-03	    1.233516E-04	    0.000000E+00	    0.000000E+00	    0.000000E+00	    0.000000E+00	    0.000000E+00	   -1.000000E+00	
    1.121431E-02	    4.409613E-03	    9.988620E-05	    0.000000E+00	    0.000000E+00	    0.000000E+00	    0.000000E+00	    0.000000E+00	   -1.000000E+00	
    1.156353E-02	    3.465219E-03	    7.842457E-05	    0.000000E+00	    0.000000E+00	    0.000000E+00	    0.000000E+00	    0.000000E+00	   -1.000000E+00	
    1.179828E-02	    2.641094E-03	    5.972707E-05	    0.000000E+00	    0.000000E+00	    0.000000E+00	    0.000000E+00	    0.000000E+00	   -1.000000E+00	
    1.194710E-02	    1.954003E-03	    4.416054E-05	    0.000000E+00	    0.000000E+00	    0.000000E+00	    0.000000E+00	    0.000000E+00	   -1.000000E+00	
    1.203654E-02	    1.404988E-03	    3.173654E-05	    0.000000E+00	    0.000000E+00	    0.000000E+00	    0.000000E+00	    0.000000E+00	   -1.000000E+00	
    1.208787E-02	    9.833170E-04	    2.220293E-05	    0.000000E+00	    0.000000E+00	    0.000000E+00	    0.000000E+00	    0.000000E+00	   -1.000000E+00	
    1.211628E-02	    6.711718E-04	    1.515041E-05	    0.000000E+00	    0.000000E+00	    0.000000E+00	    0.000000E+00	    0.000000E+00	   -1.000000E+00	
    1.213163E-02	    4.478714E-04	    1.010774E-05	    0.000000E+00	    0.000000E+00	    0.000000E+00	    0.000000E+00	    0.000000E+00	   -1.000000E+00	
    1.213985E-02	    2.930603E-04	    6.612948E-06	    0.000000E+00	    0.000000E+00	    0.000000E+00	    0.000000E+00	    0.000000E+00	   -1.000000E+00	
    1.214428E-02	    1.887132E-04	    4.257927E-06	    0.000000E+00	    0.000000E+00	    0.000000E+00	    0.000000E+00	    0.000000E+00	   -1.000000E+00	
    1.214670E-02	    1.200827E-04	    2.709249E-06	    0.000000E+00	    0.000000E+00	    0.000000E+00	    0.000000E+00	    0.000000E+00	   -1.000000E+00	
    1.214805E-02	    7.585293E-05	    1.711287E-06	    0.000000E+00	    0.000000E+00	    0.000000E+00	    0.000000E+00	    0.000000E+00	   -1.000000E+00	
    1.214849E-02	    6.021126E-05	    0.000000E+00	    0.000000E+00	    0.000000E+00	    0.000000E+00	    0.000000E+00	    0.000000E+00	   -1.000000E+00	
   -1.214725E-02	    6.016429E-05	    0.000000E+00	    0.000000E+00	    0.000000E+00	    0.000000E+00	    0.000000E+00	    0.000000E+00	   -1.000000E+00	
   -1.214649E-02	    7.579175E-05	    3.275807E-06	    0.000000E+00	    0.000000E+00	    0.000000E+00	    0.000000E+00	    0.000000E+00	   -1.000000E+00	
   -1.214422E-02	    1.199769E-04	    5.185946E-06	    0.000000E+00	    0.000000E+00	    0.000000E+00	    0.000000E+00	    0.000000E+00	   -1.000000E+00	
   -1.214039E-02	    1.885249E-04	    8.149897E-06	    0.000000E+00	    0.000000E+00	    0.000000E+00	    0.000000E+00	    0.000000E+00	   -1.000000E+00	
   -1.213382E-02	    2.927161E-04	    1.265641E-05	    0.000000E+00	    0.000000E+00	    0.000000E+00	    0.000000E+00	    0.000000E+00	   -1.000000E+00	
   -1.212242E-02	    4.472279E-04	    1.934249E-05	    0.000000E+00	    0.000000E+00	    0.000000E+00	    0.000000E+00	    0.000000E+00	   -1.000000E+00	
   -1.210249E-02	    6.699538E-04	    2.898682E-05	    0.000000E+00	    0.000000E+00	    0.000000E+00	    0.000000E+00	    0.000000E+00	   -1.000000E+00	
   -1.206773E-02	    9.810134E-04	    4.246896E-05	    0.000000E+00	    0.000000E+00	    0.000000E+00	    0.000000E+00	    0.000000E+00	   -1.000000E+00	
   -1.200791E-02	    1.400696E-03	    6.068284E-05	    0.000000E+00	    0.000000E+00	    0.000000E+00	    0.000000E+00	    0.000000E+00	   -1.000000E+00	
   -1.190762E-02	    1.946225E-03	    8.439932E-05	    0.000000E+00	    0.000000E+00	    0.000000E+00	    0.000000E+00	    0.000000E+00	   -1.000000E+00	
   -1.174564E-02	    2.627527E-03	    1.140837E-04	    0.000000E+00	    0.000000E+00	    0.000000E+00	    0.000000E+00	    0.000000E+00	   -1.000000E+00	
   -1.149593E-02	    3.442626E-03	    1.496933E-04	    0.000000E+00	    0.000000E+00	    0.000000E+00	    0.000000E+00	    0.000000E+00	   -1.000000E+00	
   -1.113101E-02	    4.373894E-03	    1.905066E-04	    0.000000E+00	    0.000000E+00	    0.000000E+00	    0.000000E+00	    0.000000E+00	   -1.000000E+00	
   -1.062774E-02	    5.386849E-03	    2.350567E-04	    0.000000E+00	    0.000000E+00	    0.000000E+00	    0.000000E+00	    0.000000E+00	   -1.000000E+00	
   -9.974222E-03	    6.432998E-03	    2.812395E-04	    0.000000E+00	    0.000000E+00	    0.000000E+00	    0.000000E+00	    0.000000E+00	   -1.000000E+00	
   -9.175319E-03	    7.457009E-03	    3.266167E-04	    0.000000E+00	    0.000000E+00	    0.000000E+00	    0.000000E+00	    0.000000E+00	   -1.000000E+00	
   -8.253981E-03	    8.406453E-03	    3.688424E-04	    0.000000E+00	    0.000000E+00	    0.000000E+00	    0.000000E+00	    0.000000E+00	   -1.000000E+00	
   -7.247556E-03	    9.240863E-03	    4.060746E-04	    0.000000E+00	    0.000000E+00	    0.000000E+00	    0.000000E+00	    0.000000E+00	   -1.000000E+00	
   -6.200414E-03	    9.937032E-03	    4.372265E-04	    0.000000E+00	    0.000000E+00	    0.000000E+00	    0.000000E+00	    0.000000E+00	   -1.000000E+00	
   -5.155847E-03	    1.048938E-02	    4.620002E-04	    0.000000E+00	    0.000000E+00	    0.000000E+00	    0.000000E+00	    0.000000E+00	   -1.000000E+00	
   -4.149943E-03	    1.090642E-02	    4.807389E-04	    0.000000E+00	    0.000000E+00	    0.000000E+00	    0.000000E+00	    0.000000E+00	   -1.000000E+00	
   -3.208592E-03	    1.120549E-02	    4.941949E-04	    0.000000E+00	    0.000000E+00	    0.000000E+00	    0.000000E+00	    0.000000E+00	   -1.000000E+00	
   -2.347330E-03	    1.140770E-02	    5.033018E-04	    0.000000E+00	    0.000000E+00	    0.000000E+00	    0.000000E+00	    0.000000E+00	   -1.000000E+00	
   -1.572945E-03	    1.153424E-02	    5.090038E-04	    0.000000E+00	    0.000000E+00	    0.000000E+00	    0.000000E+00	    0.000000E+00	   -1.000000E+00	
   -8.857541E-04	    1.160409E-02	    5.121527E-04	    0.000000E+00	    0.000000E+00	    0.000000E+00	    0.000000E+00	    0.000000E+00	   -1.000000E+00	
   -2.818248E-04	    1.163312E-02	    5.134618E-04	    0.000000E+00	    0.000000E+00	    0.000000E+00	    0.000000E+00	    0.000000E+00	   -1.000000E+00	
    2.818248E-04	    1.163312E-02	    5.134618E-04	    0.000000E+00	    0.000000E+00	    0.000000E+00	    0.000000E+00	    0.000000E+00	   -1.000000E+00	
    8.857541E-04	    1.160409E-02	    5.121527E-04	    0.000000E+00	    0.000000E+00	    0.000000E+00	    0.000000E+00	    0.000000E+00	   -1.000000E+00	
    1.572945E-03	    1.153424E-02	    5.090038E-04	    0.000000E+00	    0.000000E+00	    0.000000E+00	    0.000000E+00	    0.000000E+00	   -1.000000E+00	
    2.347330E-03	    1.140770E-02	    5.033018E-04	    0.000000E+00	    0.000000E+00	    0.000000E+00	    0.000000E+00	    0.000000E+00	   -1.000000E+00	
    3.208592E-03	    1.120549E-02	    4.941949E-04	    0.000000E+00	    0.000000E+00	    0.000000E+00	    0.000000E+00	    0.000000E+00	   -1.000000E+00	
    4.149943E-03	    1.090642E-02	    4.807389E-04	    0.000000E+00	    0.000000E+00	    0.000000E+00	    0.000000E+00	    0.000000E+00	   -1.000000E+00	
    5.155847E-03	    1.048938E-02	    4.620002E-04	    0.000000E+00	    0.000000E+00	    0.000000E+00	    0.000000E+00	    0.000000E+00	   -1.000000E+00	
    6.200414E-03	    9.937032E-03	    4.372265E-04	    0.000000E+00	    0.000000E+00	    0.000000E+00	    0.000000E+00	    0.000000E+00	   -1.000000E+00	
    7.247556E-03	    9.240863E-03	    4.060746E-04	    0.000000E+00	    0.000000E+00	    0.000000E+00	    0.000000E+00	    0.000000E+00	   -1.000000E+00	
    8.253981E-03	    8.406453E-03	    3.688424E-04	    0.000000E+00	    0.000000E+00	    0.000000E+00	    0.000000E+00	    0.000000E+00	   -1.000000E+00	
    9.175319E-03	    7.457009E-03	    3.266167E-04	    0.000000E+00	    0.000000E+00	    0.000000E+00	    0.000000E+00	    0.000000E+00	   -1.000000E+00	
    9.974222E-03	    6.432998E-03	    2.812395E-04	    0.000000E+00	    0.000000E+00	    0.000000E+00	    0.000000E+00	    0.000000E+00	   -1.000000E+00	