Title="Fields"
Variables="X""Y""Velocity""Phi""Effective Viscosity""Dynamic Viscosity""Density""Eddy Viscosity""K""Omega""S""F1SST""distance""GEN"
Zone I=52 J=52 F=POINT
   -1.200207E-02	    5.882092E-05	    0.000000E+00	    0.000000E+00	    1.000000E-03	    1.000000E-03	    1.000000E+03	    0.000000E+00	    0.000000E+00	    7.523890E+08	    0.000000E+00	    1.000000E+00	    0.000000E+00	    0.000000E+00	
   -1.199966E-02	    7.408919E-05	    0.000000E+00	    0.000000E+00	    1.000000E-03	    1.000000E-03	    1.000000E+03	    0.000000E+00	    0.000000E+00	    7.523890E+08	    0.000000E+00	    1.000000E+00	    0.000000E+00	    0.000000E+00	
   -1.199273E-02	    1.172359E-04	    0.000000E+00	    0.000000E+00	    1.000000E-03	    1.000000E-03	    1.000000E+03	    0.000000E+00	    0.000000E+00	    3.004974E+08	    0.000000E+00	    1.000000E+00	    0.000000E+00	    0.000000E+00	
   -1.198167E-02	    1.841061E-04	    0.000000E+00	    0.000000E+00	    1.000000E-03	    1.000000E-03	    1.000000E+03	    0.000000E+00	    0.000000E+00	    1.218541E+08	    0.000000E+00	    1.000000E+00	    0.000000E+00	    0.000000E+00	
   -1.196416E-02	    2.855920E-04	    0.000000E+00	    0.000000E+00	    1.000000E-03	    1.000000E-03	    1.000000E+03	    0.000000E+00	    0.000000E+00	    5.064156E+07	    0.000000E+00	    1.000000E+00	    0.000000E+00	    0.000000E+00	
   -1.193662E-02	    4.357482E-04	    0.000000E+00	    0.000000E+00	    1.000000E-03	    1.000000E-03	    1.000000E+03	    0.000000E+00	    0.000000E+00	    2.175511E+07	    0.000000E+00	    1.000000E+00	    0.000000E+00	    0.000000E+00	
   -1.189362E-02	    6.514764E-04	    0.000000E+00	    0.000000E+00	    1.000000E-03	    1.000000E-03	    1.000000E+03	    0.000000E+00	    0.000000E+00	    9.733813E+06	    0.000000E+00	    1.000000E+00	    0.000000E+00	    0.000000E+00	
   -1.182705E-02	    9.513502E-04	    0.000000E+00	    0.000000E+00	    1.000000E-03	    1.000000E-03	    1.000000E+03	    0.000000E+00	    0.000000E+00	    4.565267E+06	    0.000000E+00	    1.000000E+00	    0.000000E+00	    0.000000E+00	
   -1.172520E-02	    1.353353E-03	    0.000000E+00	    0.000000E+00	    1.000000E-03	    1.000000E-03	    1.000000E+03	    0.000000E+00	    0.000000E+00	    2.256391E+06	    0.000000E+00	    1.000000E+00	    0.000000E+00	    0.000000E+00	
   -1.157201E-02	    1.871508E-03	    0.000000E+00	    0.000000E+00	    1.000000E-03	    1.000000E-03	    1.000000E+03	    0.000000E+00	    0.000000E+00	    1.180235E+06	    0.000000E+00	    1.000000E+00	    0.000000E+00	    0.000000E+00	
   -1.134725E-02	    2.511747E-03	    0.000000E+00	    0.000000E+00	    1.000000E-03	    1.000000E-03	    1.000000E+03	    0.000000E+00	    0.000000E+00	    6.554538E+05	    0.000000E+00	    1.000000E+00	    0.000000E+00	    0.000000E+00	
   -1.102817E-02	    3.267863E-03	    0.000000E+00	    0.000000E+00	    1.000000E-03	    1.000000E-03	    1.000000E+03	    0.000000E+00	    0.000000E+00	    3.873780E+05	    0.000000E+00	    1.000000E+00	    0.000000E+00	    0.000000E+00	
   -1.059327E-02	    4.118873E-03	    0.000000E+00	    0.000000E+00	    1.000000E-03	    1.000000E-03	    1.000000E+03	    0.000000E+00	    0.000000E+00	    2.439478E+05	    0.000000E+00	    1.000000E+00	    0.000000E+00	    0.000000E+00	
   -1.002766E-02	    5.029308E-03	    0.000000E+00	    0.000000E+00	    1.000000E-03	    1.000000E-03	    1.000000E+03	    0.000000E+00	    0.000000E+00	    1.636980E+05	    0.000000E+00	    1.000000E+00	    0.000000E+00	    0.000000E+00	
   -9.328507E-03	    5.953348E-03	    0.000000E+00	    0.000000E+00	    1.000000E-03	    1.000000E-03	    1.000000E+03	    0.000000E+00	    0.000000E+00	    1.168827E+05	    0.000000E+00	    1.000000E+00	    0.000000E+00	    0.000000E+00	
   -8.508284E-03	    6.842270E-03	    0.000000E+00	    0.000000E+00	    1.000000E-03	    1.000000E-03	    1.000000E+03	    0.000000E+00	    0.000000E+00	    8.852825E+04	    0.000000E+00	    1.000000E+00	    0.000000E+00	    0.000000E+00	
   -7.593997E-03	    7.653048E-03	    0.000000E+00	    0.000000E+00	    1.000000E-03	    1.000000E-03	    1.000000E+03	    0.000000E+00	    0.000000E+00	    7.079628E+04	    0.000000E+00	    1.000000E+00	    0.000000E+00	    0.000000E+00	
   -6.622474E-03	    8.355182E-03	    0.000000E+00	    0.000000E+00	    1.000000E-03	    1.000000E-03	    1.000000E+03	    0.000000E+00	    0.000000E+00	    5.942146E+04	    0.000000E+00	    1.000000E+00	    0.000000E+00	    0.000000E+00	
   -5.633522E-03	    8.933687E-03	    0.000000E+00	    0.000000E+00	    1.000000E-03	    1.000000E-03	    1.000000E+03	    0.000000E+00	    0.000000E+00	    5.199281E+04	    0.000000E+00	    1.000000E+00	    0.000000E+00	    0.000000E+00	
   -4.663481E-03	    9.388033E-03	    0.000000E+00	    0.000000E+00	    1.000000E-03	    1.000000E-03	    1.000000E+03	    0.000000E+00	    0.000000E+00	    4.709521E+04	    0.000000E+00	    1.000000E+00	    0.000000E+00	    0.000000E+00	
   -3.740988E-03	    9.728391E-03	    0.000000E+00	    0.000000E+00	    1.000000E-03	    1.000000E-03	    1.000000E+03	    0.000000E+00	    0.000000E+00	    4.386691E+04	    0.000000E+00	    1.000000E+00	    0.000000E+00	    0.000000E+00	
   -2.885430E-03	    9.971061E-03	    0.000000E+00	    0.000000E+00	    1.000000E-03	    1.000000E-03	    1.000000E+03	    0.000000E+00	    0.000000E+00	    4.176418E+04	    0.000000E+00	    1.000000E+00	    0.000000E+00	    0.000000E+00	
   -2.107477E-03	    1.013448E-02	    0.000000E+00	    0.000000E+00	    1.000000E-03	    1.000000E-03	    1.000000E+03	    0.000000E+00	    0.000000E+00	    4.043243E+04	    0.000000E+00	    1.000000E+00	    0.000000E+00	    0.000000E+00	
   -1.410783E-03	    1.023647E-02	    0.000000E+00	    0.000000E+00	    1.000000E-03	    1.000000E-03	    1.000000E+03	    0.000000E+00	    0.000000E+00	    3.963342E+04	    0.000000E+00	    1.000000E+00	    0.000000E+00	    0.000000E+00	
   -7.939916E-04	    1.029268E-02	    0.000000E+00	    0.000000E+00	    1.000000E-03	    1.000000E-03	    1.000000E+03	    0.000000E+00	    0.000000E+00	    3.920315E+04	    0.000000E+00	    1.000000E+00	    0.000000E+00	    0.000000E+00	
   -2.525693E-04	    1.031603E-02	    0.000000E+00	    0.000000E+00	    1.000000E-03	    1.000000E-03	    1.000000E+03	    0.000000E+00	    0.000000E+00	    3.902652E+04	    0.000000E+00	    1.000000E+00	    0.000000E+00	    0.000000E+00	
    2.525693E-04	    1.031603E-02	    0.000000E+00	    0.000000E+00	    1.000000E-03	    1.000000E-03	    1.000000E+03	    0.000000E+00	    0.000000E+00	    3.902652E+04	    0.000000E+00	    1.000000E+00	    0.000000E+00	    0.000000E+00	
    7.939916E-04	    1.029268E-02	    0.000000E+00	    0.000000E+00	    1.000000E-03	    1.000000E-03	    1.000000E+03	    0.000000E+00	    0.000000E+00	    3.920315E+04	    0.000000E+00	    1.000000E+00	    0.000000E+00	    0.000000E+00	
    1.410783E-03	    1.023647E-02	    0.000000E+00	    0.000000E+00	    1.000000E-03	    1.000000E-03	    1.000000E+03	    0.000000E+00	    0.000000E+00	    3.963342E+04	    0.000000E+00	    1.000000E+00	    0.000000E+00	    0.000000E+00	
    2.107477E-03	    1.013448E-02	    0.000000E+00	    0.000000E+00	    1.000000E-03	    1.000000E-03	    1.000000E+03	    0.000000E+00	    0.000000E+00	    4.043243E+04	    0.000000E+00	    1.000000E+00	    0.000000E+00	    0.000000E+00	
    2.885430E-03	    9.971061E-03	    0.000000E+00	    0.000000E+00	    1.000000E-03	    1.000000E-03	    1.000000E+03	    0.000000E+00	    0.000000E+00	    4.176418E+04	    0.000000E+00	    1.000000E+00	    0.000000E+00	    0.000000E+00	
    3.740988E-03	    9.728391E-03	    0.000000E+00	    0.000000E+00	    1.000000E-03	    1.000000E-03	    1.000000E+03	    0.000000E+00	    0.000000E+00	    4.386691E+04	    0.000000E+00	    1.000000E+00	    0.000000E+00	    0.000000E+00	
    4.663481E-03	    9.388033E-03	    0.000000E+00	    0.000000E+00	    1.000000E-03	    1.000000E-03	    1.000000E+03	    0.000000E+00	    0.000000E+00	    4.709521E+04	    0.000000E+00	    1.000000E+00	    0.000000E+00	    0.000000E+00	
    5.633522E-03	    8.933687E-03	    0.000000E+00	    0.000000E+00	    1.000000E-03	    1.000000E-03	    1.000000E+03	    0.000000E+00	    0.000000E+00	    5.199281E+04	    0.000000E+00	    1.000000E+00	    0.000000E+00	    0.000000E+00	
    6.622474E-03	    8.355182E-03	    0.000000E+00	    0.000000E+00	    1.000000E-03	    1.000000E-03	    1.000000E+03	    0.000000E+00	    0.000000E+00	    5.942146E+04	    0.000000E+00	    1.000000E+00	    0.000000E+00	    0.000000E+00	
    7.593997E-03	    7.653048E-03	    0.000000E+00	    0.000000E+00	    1.000000E-03	    1.000000E-03	    1.000000E+03	    0.000000E+00	    0.000000E+00	    7.079628E+04	    0.000000E+00	    1.000000E+00	    0.000000E+00	    0.000000E+00	
    8.508284E-03	    6.842270E-03	    0.000000E+00	    0.000000E+00	    1.000000E-03	    1.000000E-03	    1.000000E+03	    0.000000E+00	    0.000000E+00	    8.852825E+04	    0.000000E+00	    1.000000E+00	    0.000000E+00	    0.000000E+00	
    9.328507E-03	    5.953348E-03	    0.000000E+00	    0.000000E+00	    1.000000E-03	    1.000000E-03	    1.000000E+03	    0.000000E+00	    0.000000E+00	    1.168827E+05	    0.000000E+00	    1.000000E+00	    0.000000E+00	    0.000000E+00	
    1.002766E-02	    5.029308E-03	    0.000000E+00	    0.000000E+00	    1.000000E-03	    1.000000E-03	    1.000000E+03	    0.000000E+00	    0.000000E+00	    1.636980E+05	    0.000000E+00	    1.000000E+00	    0.000000E+00	    0.000000E+00	
    1.059327E-02	    4.118873E-03	    0.000000E+00	    0.000000E+00	    1.000000E-03	    1.000000E-03	    1.000000E+03	    0.000000E+00	    0.000000E+00	    2.439478E+05	    0.000000E+00	    1.000000E+00	    0.000000E+00	    0.000000E+00	
    1.102817E-02	    3.267863E-03	    0.000000E+00	    0.000000E+00	    1.000000E-03	    1.000000E-03	    1.000000E+03	    0.000000E+00	    0.000000E+00	    3.873780E+05	    0.000000E+00	    1.000000E+00	    0.000000E+00	    0.000000E+00	
    1.134725E-02	    2.511747E-03	    0.000000E+00	    0.000000E+00	    1.000000E-03	    1.000000E-03	    1.000000E+03	    0.000000E+00	    0.000000E+00	    6.554538E+05	    0.000000E+00	    1.000000E+00	    0.000000E+00	    0.000000E+00	
    1.157201E-02	    1.871508E-03	    0.000000E+00	    0.000000E+00	    1.000000E-03	    1.000000E-03	    1.000000E+03	    0.000000E+00	    0.000000E+00	    1.180235E+06	    0.000000E+00	    1.000000E+00	    0.000000E+00	    0.000000E+00	
    1.172520E-02	    1.353353E-03	    0.000000E+00	    0.000000E+00	    1.000000E-03	    1.000000E-03	    1.000000E+03	    0.000000E+00	    0.000000E+00	    2.256391E+06	    0.000000E+00	    1.000000E+00	    0.000000E+00	    0.000000E+00	
    1.182705E-02	    9.513502E-04	    0.000000E+00	    0.000000E+00	    1.000000E-03	    1.000000E-03	    1.000000E+03	    0.000000E+00	    0.000000E+00	    4.565267E+06	    0.000000E+00	    1.000000E+00	    0.000000E+00	    0.000000E+00	
    1.189362E-02	    6.514764E-04	    0.000000E+00	    0.000000E+00	    1.000000E-03	    1.000000E-03	    1.000000E+03	    0.000000E+00	    0.000000E+00	    9.733813E+06	    0.000000E+00	    1.000000E+00	    0.000000E+00	    0.000000E+00	
    1.193662E-02	    4.357482E-04	    0.000000E+00	    0.000000E+00	    1.000000E-03	    1.000000E-03	    1.000000E+03	    0.000000E+00	    0.000000E+00	    2.175511E+07	    0.000000E+00	    1.000000E+00	    0.000000E+00	    0.000000E+00	
    1.196416E-02	    2.855920E-04	    0.000000E+00	    0.000000E+00	    1.000000E-03	    1.000000E-03	    1.000000E+03	    0.000000E+00	    0.000000E+00	    5.064156E+07	    0.000000E+00	    1.000000E+00	    0.000000E+00	    0.000000E+00	
    1.198167E-02	    1.841061E-04	    0.000000E+00	    0.000000E+00	    1.000000E-03	    1.000000E-03	    1.000000E+03	    0.000000E+00	    0.000000E+00	    1.218541E+08	    0.000000E+00	    1.000000E+00	    0.000000E+00	    0.000000E+00	
    1.199273E-02	    1.172359E-04	    0.000000E+00	    0.000000E+00	    1.000000E-03	    1.000000E-03	    1.000000E+03	    0.000000E+00	    0.000000E+00	    3.004974E+08	    0.000000E+00	    1.000000E+00	    0.000000E+00	    0.000000E+00	
    1.199966E-02	    7.408919E-05	    0.000000E+00	    0.000000E+00	    1.000000E-03	    1.000000E-03	    1.000000E+03	    0.000000E+00	    0.000000E+00	    7.523890E+08	    0.000000E+00	    1.000000E+00	    0.000000E+00	    0.000000E+00	
    1.200207E-02	    5.882092E-05	    0.000000E+00	    0.000000E+00	    1.000000E-03	    1.000000E-03	    1.000000E+03	    0.000000E+00	    0.000000E+00	    0.000000E+00	    0.000000E+00	    1.000000E+00	    0.000000E+00	    0.000000E+00	
   -1.200171E-02	    5.876289E-05	    0.000000E+00	    0.000000E+00	    1.000000E-03	    1.000000E-03	    1.000000E+03	    0.000000E+00	    0.000000E+00	    0.000000E+00	    0.000000E+00	    1.000000E+00	    0.000000E+00	    0.000000E+00	
   -1.199920E-02	    7.401552E-05	    3.158026E-04	   -1.000000E+00	    1.600000E-03	    1.600000E-03	    8.010000E+02	    9.264429E-15	    8.702191E-09	    7.523890E+08	    3.101603E+05	    1.000000E+00	    4.608584E-07	    2.964775E+02	
   -1.199201E-02	    1.171167E-04	    7.749808E-04	   -1.000000E+00	    1.600000E-03	    1.600000E-03	    8.010000E+02	    5.242891E-14	    1.966885E-08	    3.004974E+08	    7.455085E+05	    1.000000E+00	    7.292365E-07	    4.368581E+02	
   -1.198054E-02	    1.839127E-04	    1.373155E-03	   -1.000000E+00	    1.600000E-03	    1.600000E-03	    8.010000E+02	    4.066745E-13	    6.186636E-08	    1.218541E+08	    9.490111E+05	    1.000000E+00	    1.145167E-06	    5.566811E+02	
   -1.196241E-02	    2.852771E-04	    2.191631E-03	   -1.000000E+00	    1.600000E-03	    1.600000E-03	    8.010000E+02	    2.500466E-12	    1.580868E-07	    5.064156E+07	    1.004595E+06	    1.000000E+00	    1.776377E-06	    5.902574E+02	
   -1.193395E-02	    4.352344E-04	    3.328493E-03	   -1.000000E+00	    1.600000E-03	    1.600000E-03	    8.010000E+02	    1.350570E-11	    3.668139E-07	    2.175511E+07	    9.952776E+05	    1.000000E+00	    2.710242E-06	    5.866121E+02	
   -1.188965E-02	    6.506364E-04	    4.894472E-03	   -1.000000E+00	    1.600000E-03	    1.600000E-03	    8.010000E+02	    6.587660E-11	    8.005374E-07	    9.733813E+06	    9.627000E+05	    1.000000E+00	    4.051793E-06	    5.701629E+02	
   -1.182129E-02	    9.499778E-04	    7.007232E-03	   -1.000000E+00	    1.600000E-03	    1.600000E-03	    8.010000E+02	    2.918736E-10	    1.663522E-06	    4.565267E+06	    9.251741E+05	    1.000000E+00	    5.916374E-06	    5.518820E+02	
   -1.171708E-02	    1.351123E-03	    9.786814E-03	   -1.000000E+00	    1.600000E-03	    1.600000E-03	    8.010000E+02	    1.174696E-09	    3.309079E-06	    2.256391E+06	    8.916212E+05	    1.000000E+00	    8.415532E-06	    5.373144E+02	
   -1.156094E-02	    1.867929E-03	    1.331277E-02	   -1.000000E+00	    1.600001E-03	    1.600000E-03	    8.010000E+02	    4.265075E-09	    6.284380E-06	    1.180235E+06	    8.624808E+05	    1.000000E+00	    1.163602E-05	    5.268500E+02	
   -1.133268E-02	    2.506124E-03	    1.761953E-02	   -1.000000E+00	    1.600003E-03	    1.600000E-03	    8.010000E+02	    1.390127E-08	    1.137533E-05	    6.554538E+05	    8.384433E+05	    1.000000E+00	    1.561413E-05	    5.209995E+02	
   -1.100976E-02	    3.259287E-03	    2.264455E-02	   -1.000000E+00	    1.600007E-03	    1.600000E-03	    8.010000E+02	    4.038897E-08	    1.953283E-05	    3.873780E+05	    8.177829E+05	    1.000000E+00	    2.031056E-05	    5.185603E+02	
   -1.057099E-02	    4.106278E-03	    2.819828E-02	   -1.000000E+00	    1.600019E-03	    1.600000E-03	    8.010000E+02	    1.037356E-07	    3.159309E-05	    2.439478E+05	    7.977613E+05	    1.000000E+00	    2.559423E-05	    5.171676E+02	
   -1.000192E-02	    5.011600E-03	    3.414531E-02	   -1.000000E+00	    1.600043E-03	    1.600000E-03	    8.010000E+02	    2.372272E-07	    4.848142E-05	    1.636980E+05	    7.840186E+05	    1.000000E+00	    3.124432E-05	    5.205632E+02	
   -9.300174E-03	    5.929589E-03	    4.000519E-02	   -1.000000E+00	    1.600086E-03	    1.600000E-03	    8.010000E+02	    4.756878E-07	    6.941280E-05	    1.168827E+05	    7.673340E+05	    1.000000E+00	    3.697615E-05	    5.210621E+02	
   -8.478597E-03	    6.811874E-03	    4.565924E-02	   -1.000000E+00	    1.600153E-03	    1.600000E-03	    8.010000E+02	    8.526029E-07	    9.423152E-05	    8.852825E+04	    7.558408E+05	    1.000000E+00	    4.248759E-05	    5.248066E+02	
   -7.564373E-03	    7.615902E-03	    5.083502E-02	   -1.000000E+00	    1.600247E-03	    1.600000E-03	    8.010000E+02	    1.371962E-06	    1.212606E-04	    7.079628E+04	    7.478762E+05	    1.000000E+00	    4.751236E-05	    5.300374E+02	
   -6.594280E-03	    8.311653E-03	    5.517036E-02	   -1.000000E+00	    1.600356E-03	    1.600000E-03	    8.010000E+02	    1.980076E-06	    1.468902E-04	    5.942146E+04	    7.378866E+05	    1.000000E+00	    5.186213E-05	    5.313714E+02	
   -5.607885E-03	    8.884526E-03	    5.873241E-02	   -1.000000E+00	    1.600472E-03	    1.600000E-03	    8.010000E+02	    2.624371E-06	    1.703476E-04	    5.199281E+04	    7.302866E+05	    1.000000E+00	    5.544485E-05	    5.329915E+02	
   -4.641184E-03	    9.334211E-03	    6.153175E-02	   -1.000000E+00	    1.600583E-03	    1.600000E-03	    8.010000E+02	    3.238098E-06	    1.903856E-04	    4.709521E+04	    7.247817E+05	    1.000000E+00	    5.825790E-05	    5.346918E+02	
   -3.722457E-03	    9.670941E-03	    6.362742E-02	   -1.000000E+00	    1.600678E-03	    1.600000E-03	    8.010000E+02	    3.767575E-06	    2.063319E-04	    4.386691E+04	    7.208082E+05	    1.000000E+00	    6.036478E-05	    5.361139E+02	
   -2.870781E-03	    9.910954E-03	    6.511984E-02	   -1.000000E+00	    1.600753E-03	    1.600000E-03	    8.010000E+02	    4.184680E-06	    2.181895E-04	    4.176418E+04	    7.180132E+05	    1.000000E+00	    6.186672E-05	    5.371712E+02	
   -2.096604E-03	    1.007255E-02	    6.612347E-02	   -1.000000E+00	    1.600807E-03	    1.600000E-03	    8.010000E+02	    4.485193E-06	    2.264010E-04	    4.043243E+04	    7.161318E+05	    1.000000E+00	    6.287808E-05	    5.378895E+02	
   -1.403431E-03	    1.017339E-02	    6.674872E-02	   -1.000000E+00	    1.600843E-03	    1.600000E-03	    8.010000E+02	    4.680982E-06	    2.316147E-04	    3.963342E+04	    7.149460E+05	    1.000000E+00	    6.350920E-05	    5.383310E+02	
   -7.898315E-04	    1.022896E-02	    6.709226E-02	   -1.000000E+00	    1.600862E-03	    1.600000E-03	    8.010000E+02	    4.791564E-06	    2.345124E-04	    3.920315E+04	    7.142735E+05	    1.000000E+00	    6.385704E-05	    5.385604E+02	
   -2.512430E-04	    1.025204E-02	    6.723331E-02	   -1.000000E+00	    1.600871E-03	    1.600000E-03	    8.010000E+02	    4.837839E-06	    2.357104E-04	    3.902652E+04	    7.139612E+05	    1.000000E+00	    6.400150E-05	    5.386297E+02	
    2.512430E-04	    1.025204E-02	    6.723331E-02	   -1.000000E+00	    1.600871E-03	    1.600000E-03	    8.010000E+02	    4.837839E-06	    2.357104E-04	    3.902652E+04	    7.139612E+05	    1.000000E+00	    6.400150E-05	    5.386297E+02	
    7.898315E-04	    1.022896E-02	    6.709226E-02	   -1.000000E+00	    1.600862E-03	    1.600000E-03	    8.010000E+02	    4.791564E-06	    2.345124E-04	    3.920315E+04	    7.142735E+05	    1.000000E+00	    6.385704E-05	    5.385604E+02	
    1.403431E-03	    1.017339E-02	    6.674872E-02	   -1.000000E+00	    1.600843E-03	    1.600000E-03	    8.010000E+02	    4.680982E-06	    2.316147E-04	    3.963342E+04	    7.149460E+05	    1.000000E+00	    6.350920E-05	    5.383310E+02	
    2.096604E-03	    1.007255E-02	    6.612347E-02	   -1.000000E+00	    1.600807E-03	    1.600000E-03	    8.010000E+02	    4.485193E-06	    2.264010E-04	    4.043243E+04	    7.161318E+05	    1.000000E+00	    6.287808E-05	    5.378895E+02	
    2.870781E-03	    9.910954E-03	    6.511984E-02	   -1.000000E+00	    1.600753E-03	    1.600000E-03	    8.010000E+02	    4.184680E-06	    2.181895E-04	    4.176418E+04	    7.180132E+05	    1.000000E+00	    6.186672E-05	    5.371712E+02	
    3.722457E-03	    9.670941E-03	    6.362742E-02	   -1.000000E+00	    1.600678E-03	    1.600000E-03	    8.010000E+02	    3.767575E-06	    2.063319E-04	    4.386691E+04	    7.208082E+05	    1.000000E+00	    6.036478E-05	    5.361139E+02	
    4.641184E-03	    9.334211E-03	    6.153175E-02	   -1.000000E+00	    1.600583E-03	    1.600000E-03	    8.010000E+02	    3.238098E-06	    1.903856E-04	    4.709521E+04	    7.247817E+05	    1.000000E+00	    5.825790E-05	    5.346918E+02	
    5.607885E-03	    8.884526E-03	    5.873241E-02	   -1.000000E+00	    1.600472E-03	    1.600000E-03	    8.010000E+02	    2.624371E-06	    1.703476E-04	    5.199281E+04	    7.302866E+05	    1.000000E+00	    5.544485E-05	    5.329915E+02	
    6.594280E-03	    8.311653E-03	    5.517036E-02	   -1.000000E+00	    1.600356E-03	    1.600000E-03	    8.010000E+02	    1.980076E-06	    1.468902E-04	    5.942146E+04	    7.378866E+05	    1.000000E+00	    5.186213E-05	    5.313714E+02	
    7.564373E-03	    7.615902E-03	    5.083502E-02	   -1.000000E+00	    1.600247E-03	    1.600000E-03	    8.010000E+02	    1.371962E-06	    1.212606E-04	    7.079628E+04	    7.478762E+05	    1.000000E+00	    4.751236E-05	    5.300374E+02	
    8.478597E-03	    6.811874E-03	    4.565924E-02	   -1.000000E+00	    1.600153E-03	    1.600000E-03	    8.010000E+02	    8.526029E-07	    9.423152E-05	    8.852825E+04	    7.558408E+05	    1.000000E+00	    4.248759E-05	    5.248066E+02	
    9.300174E-03	    5.929589E-03	    4.000519E-02	   -1.000000E+00	    1.600086E-03	    1.600000E-03	    8.010000E+02	    4.756878E-07	    6.941280E-05	    1.168827E+05	    7.673340E+05	    1.000000E+00	    3.697615E-05	    5.210621E+02	
    1.000192E-02	    5.011600E-03	    3.414531E-02	   -1.000000E+00	    1.600043E-03	    1.600000E-03	    8.010000E+02	    2.372272E-07	    4.848142E-05	    1.636980E+05	    7.840186E+05	    1.000000E+00	    3.124432E-05	    5.205632E+02	
    1.057099E-02	    4.106278E-03	    2.819828E-02	   -1.000000E+00	    1.600019E-03	    1.600000E-03	    8.010000E+02	    1.037356E-07	    3.159309E-05	    2.439478E+05	    7.977613E+05	    1.000000E+00	    2.559423E-05	    5.171676E+02	
    1.100976E-02	    3.259287E-03	    2.264455E-02	   -1.000000E+00	    1.600007E-03	    1.600000E-03	    8.010000E+02	    4.038897E-08	    1.953283E-05	    3.873780E+05	    8.177829E+05	    1.000000E+00	    2.031056E-05	    5.185603E+02	
    1.133268E-02	    2.506124E-03	    1.761953E-02	   -1.000000E+00	    1.600003E-03	    1.600000E-03	    8.010000E+02	    1.390127E-08	    1.137533E-05	    6.554538E+05	    8.384433E+05	    1.000000E+00	    1.561413E-05	    5.209995E+02	
    1.156094E-02	    1.867929E-03	    1.331277E-02	   -1.000000E+00	    1.600001E-03	    1.600000E-03	    8.010000E+02	    4.265075E-09	    6.284380E-06	    1.180235E+06	    8.624808E+05	    1.000000E+00	    1.163602E-05	    5.268500E+02	
    1.171708E-02	    1.351123E-03	    9.786814E-03	   -1.000000E+00	    1.600000E-03	    1.600000E-03	    8.010000E+02	    1.174696E-09	    3.309079E-06	    2.256391E+06	    8.916212E+05	    1.000000E+00	    8.415532E-06	    5.373144E+02	
    1.182129E-02	    9.499778E-04	    7.007232E-03	   -1.000000E+00	    1.600000E-03	    1.600000E-03	    8.010000E+02	    2.918736E-10	    1.663522E-06	    4.565267E+06	    9.251741E+05	    1.000000E+00	    5.916374E-06	    5.518820E+02	
    1.188965E-02	    6.506364E-04	    4.894472E-03	   -1.000000E+00	    1.600000E-03	    1.600000E-03	    8.010000E+02	    6.587660E-11	    8.005374E-07	    9.733813E+06	    9.627000E+05	    1.000000E+00	    4.051793E-06	    5.701629E+02	
    1.193395E-02	    4.352344E-04	    3.328493E-03	   -1.000000E+00	    1.600000E-03	    1.600000E-03	    8.010000E+02	    1.350570E-11	    3.668139E-07	    2.175511E+07	    9.952776E+05	    1.000000E+00	    2.710242E-06	    5.866121E+02	
    1.196241E-02	    2.852771E-04	    2.191631E-03	   -1.000000E+00	    1.600000E-03	    1.600000E-03	    8.010000E+02	    2.500466E-12	    1.580868E-07	    5.064156E+07	    1.004595E+06	    1.000000E+00	    1.776377E-06	    5.902574E+02	
    1.198054E-02	    1.839127E-04	    1.373155E-03	   -1.000000E+00	    1.600000E-03	    1.600000E-03	    8.010000E+02	    4.066745E-13	    6.186636E-08	    1.218541E+08	    9.490111E+05	    1.000000E+00	    1.145167E-06	    5.566811E+02	
    1.199201E-02	    1.171167E-04	    7.749808E-04	   -1.000000E+00	    1.600000E-03	    1.600000E-03	    8.010000E+02	    5.242891E-14	    1.966885E-08	    3.004974E+08	    7.455085E+05	    1.000000E+00	    7.292365E-07	    4.368581E+02	
    1.199920E-02	    7.401552E-05	    3.158026E-04	   -1.000000E+00	    1.600000E-03	    1.600000E-03	    8.010000E+02	    9.264429E-15	    8.702191E-09	    7.523890E+08	    3.101603E+05	    1.000000E+00	    4.608584E-07	    2.964775E+02	
    1.200171E-02	    5.876289E-05	    0.000000E+00	    0.000000E+00	    1.000000E-03	    1.000000E-03	    1.000000E+03	    0.000000E+00	    0.000000E+00	    6.689111E+05	    0.000000E+00	    1.000000E+00	    0.000000E+00	    0.000000E+00	
   -1.200088E-02	    5.862009E-05	    0.000000E+00	    0.000000E+00	    1.000000E-03	    1.000000E-03	    1.000000E+03	    0.000000E+00	    0.000000E+00	    6.689111E+05	    0.000000E+00	    1.000000E+00	    0.000000E+00	    0.000000E+00	
   -1.199815E-02	    7.383432E-05	    7.724384E-04	   -1.000000E+00	    1.600000E-03	    1.600000E-03	    8.010000E+02	    1.395524E-10	    1.165395E-07	    6.689111E+05	    1.846920E+05	    1.000000E+00	    1.527362E-06	    2.359327E+00	
   -1.199035E-02	    1.168240E-04	    1.895572E-03	   -1.000000E+00	    1.600000E-03	    1.600000E-03	    8.010000E+02	    5.867667E-14	    3.067175E-09	    4.187026E+07	    4.412736E+05	    7.374743E-04	    2.416750E-06	    2.589247E-08	
   -1.197794E-02	    1.834386E-04	    3.358500E-03	   -1.000000E+00	    1.600000E-03	    1.600000E-03	    8.010000E+02	    5.500444E-13	    1.167360E-08	    1.699963E+07	    5.614265E+05	    2.305127E-02	    3.795027E-06	    3.088095E-07	
   -1.195837E-02	    2.845076E-04	    5.359797E-03	   -1.000000E+00	    1.600000E-03	    1.600000E-03	    8.010000E+02	    4.152577E-12	    3.820406E-08	    7.369267E+06	    5.941064E+05	    1.000000E+00	    5.886476E-06	    2.467073E-06	
   -1.192781E-02	    4.339834E-04	    8.138748E-03	   -1.000000E+00	    1.600000E-03	    1.600000E-03	    8.010000E+02	    3.184731E-11	    1.258944E-07	    3.166404E+06	    5.883590E+05	    1.000000E+00	    8.980278E-06	    1.873765E-05	
   -1.188050E-02	    6.486009E-04	    1.196491E-02	   -1.000000E+00	    1.600000E-03	    1.600000E-03	    8.010000E+02	    2.263039E-10	    4.003754E-07	    1.417124E+06	    5.687773E+05	    1.000000E+00	    1.342374E-05	    1.287165E-04	
   -1.180802E-02	    9.466707E-04	    1.712371E-02	   -1.000000E+00	    1.600000E-03	    1.600000E-03	    8.010000E+02	    1.466182E-09	    1.217062E-06	    6.649018E+05	    5.461603E+05	    1.000000E+00	    1.959770E-05	    8.007703E-04	
   -1.169837E-02	    1.345781E-03	    2.390482E-02	   -1.000000E+00	    1.600002E-03	    1.600000E-03	    8.010000E+02	    8.530443E-09	    3.501602E-06	    3.287969E+05	    5.257614E+05	    1.000000E+00	    2.786943E-05	    4.484978E-03	
   -1.153544E-02	    1.859408E-03	    3.249680E-02	   -1.000000E+00	    1.600008E-03	    1.600000E-03	    8.010000E+02	    4.351882E-08	    9.349943E-06	    1.720935E+05	    5.077945E+05	    1.000000E+00	    3.852287E-05	    2.209862E-02	
   -1.129917E-02	    2.492813E-03	    4.297603E-02	   -1.000000E+00	    1.600035E-03	    1.600000E-03	    8.010000E+02	    1.925539E-07	    2.299292E-05	    9.564763E+04	    4.925858E+05	    1.000000E+00	    5.167355E-05	    9.484931E-02	
   -1.096745E-02	    3.239098E-03	    5.518049E-02	   -1.000000E+00	    1.600131E-03	    1.600000E-03	    8.010000E+02	    7.303128E-07	    5.158232E-05	    5.657499E+04	    4.788755E+05	    1.000000E+00	    6.718610E-05	    3.497289E-01	
   -1.051987E-02	    4.076772E-03	    6.863719E-02	   -1.000000E+00	    1.600421E-03	    1.600000E-03	    8.010000E+02	    2.341383E-06	    1.042167E-04	    3.565312E+04	    4.644806E+05	    1.000000E+00	    8.462190E-05	    1.087527E+00	
   -9.942943E-03	    4.970288E-03	    8.300891E-02	   -1.000000E+00	    1.601166E-03	    1.600000E-03	    8.010000E+02	    6.475621E-06	    1.934879E-04	    2.393342E+04	    4.518023E+05	    1.000000E+00	    1.032477E-04	    2.925701E+00	
   -9.235363E-03	    5.874366E-03	    9.711424E-02	   -1.000000E+00	    1.602701E-03	    1.600000E-03	    8.010000E+02	    1.500709E-05	    3.201299E-04	    1.708686E+04	    4.347225E+05	    1.000000E+00	    1.221228E-04	    6.523921E+00	
   -8.410790E-03	    6.741444E-03	    1.106642E-01	   -1.000000E+00	    1.605461E-03	    1.600000E-03	    8.010000E+02	    3.033781E-05	    4.898741E-04	    1.293400E+04	    4.180611E+05	    1.000000E+00	    1.402530E-04	    1.268306E+01	
   -7.496800E-03	    7.530050E-03	    1.229993E-01	   -1.000000E+00	    1.609653E-03	    1.600000E-03	    8.010000E+02	    5.362559E-05	    6.919137E-04	    1.033504E+04	    4.020606E+05	    1.000000E+00	    1.567659E-04	    2.156074E+01	
   -6.530044E-03	    8.211258E-03	    1.332541E-01	   -1.000000E+00	    1.614811E-03	    1.600000E-03	    8.010000E+02	    8.228489E-05	    8.906205E-04	    8.669720E+03	    3.857293E+05	    1.000000E+00	    1.710481E-04	    3.173969E+01	
   -5.549532E-03	    8.771322E-03	    1.416194E-01	   -1.000000E+00	    1.620529E-03	    1.600000E-03	    8.010000E+02	    1.140490E-04	    1.079797E-03	    7.583741E+03	    3.721691E+05	    1.000000E+00	    1.828030E-04	    4.244550E+01	
   -4.590472E-03	    9.210426E-03	    1.481475E-01	   -1.000000E+00	    1.626144E-03	    1.600000E-03	    8.010000E+02	    1.452423E-04	    1.245561E-03	    6.869171E+03	    3.615835E+05	    1.000000E+00	    1.920271E-04	    5.251724E+01	