Title="Fields"
Variables="X""Y""Velocity""Effective Viscosity""Dynamic Viscosity""Density""Eddy Viscosity""K""Omega""S"
Zone I=52 J=52 F=POINT
   -1.214985E-02	    6.023331E-05	    0.000000E+00	    1.000000E-03	    1.000000E-03	    1.000000E+03	    0.000000E+00	    0.000000E+00	    0.000000E+00	    0.000000E+00	
   -1.214976E-02	    7.588291E-05	    0.000000E+00	    1.000000E-03	    1.000000E-03	    1.000000E+03	    0.000000E+00	    0.000000E+00	    0.000000E+00	    0.000000E+00	
   -1.214941E-02	    1.201401E-04	    0.000000E+00	    1.000000E-03	    1.000000E-03	    1.000000E+03	    0.000000E+00	    0.000000E+00	    0.000000E+00	    0.000000E+00	
   -1.214853E-02	    1.888273E-04	    0.000000E+00	    1.000000E-03	    1.000000E-03	    1.000000E+03	    0.000000E+00	    0.000000E+00	    0.000000E+00	    0.000000E+00	
   -1.214646E-02	    2.932944E-04	    0.000000E+00	    1.000000E-03	    1.000000E-03	    1.000000E+03	    0.000000E+00	    0.000000E+00	    0.000000E+00	    0.000000E+00	
   -1.214172E-02	    4.483581E-04	    0.000000E+00	    1.000000E-03	    1.000000E-03	    1.000000E+03	    0.000000E+00	    0.000000E+00	    0.000000E+00	    0.000000E+00	
   -1.213139E-02	    6.721802E-04	    0.000000E+00	    1.000000E-03	    1.000000E-03	    1.000000E+03	    0.000000E+00	    0.000000E+00	    0.000000E+00	    0.000000E+00	
   -1.210998E-02	    9.853660E-04	    0.000000E+00	    1.000000E-03	    1.000000E-03	    1.000000E+03	    0.000000E+00	    0.000000E+00	    0.000000E+00	    0.000000E+00	
   -1.206802E-02	    1.409020E-03	    0.000000E+00	    1.000000E-03	    1.000000E-03	    1.000000E+03	    0.000000E+00	    0.000000E+00	    0.000000E+00	    0.000000E+00	
   -1.199060E-02	    1.961617E-03	    0.000000E+00	    1.000000E-03	    1.000000E-03	    1.000000E+03	    0.000000E+00	    0.000000E+00	    0.000000E+00	    0.000000E+00	
   -1.185642E-02	    2.654783E-03	    0.000000E+00	    1.000000E-03	    1.000000E-03	    1.000000E+03	    0.000000E+00	    0.000000E+00	    0.000000E+00	    0.000000E+00	
   -1.163841E-02	    3.488544E-03	    0.000000E+00	    1.000000E-03	    1.000000E-03	    1.000000E+03	    0.000000E+00	    0.000000E+00	    0.000000E+00	    0.000000E+00	
   -1.130687E-02	    4.447143E-03	    0.000000E+00	    1.000000E-03	    1.000000E-03	    1.000000E+03	    0.000000E+00	    0.000000E+00	    0.000000E+00	    0.000000E+00	
   -1.083529E-02	    5.497176E-03	    0.000000E+00	    1.000000E-03	    1.000000E-03	    1.000000E+03	    0.000000E+00	    0.000000E+00	    0.000000E+00	    0.000000E+00	
   -1.020773E-02	    6.589745E-03	    0.000000E+00	    1.000000E-03	    1.000000E-03	    1.000000E+03	    0.000000E+00	    0.000000E+00	    0.000000E+00	    0.000000E+00	
   -9.425249E-03	    7.667280E-03	    0.000000E+00	    1.000000E-03	    1.000000E-03	    1.000000E+03	    0.000000E+00	    0.000000E+00	    0.000000E+00	    0.000000E+00	
   -8.508323E-03	    8.673577E-03	    0.000000E+00	    1.000000E-03	    1.000000E-03	    1.000000E+03	    0.000000E+00	    0.000000E+00	    0.000000E+00	    0.000000E+00	
   -7.493806E-03	    9.563753E-03	    0.000000E+00	    1.000000E-03	    1.000000E-03	    1.000000E+03	    0.000000E+00	    0.000000E+00	    0.000000E+00	    0.000000E+00	
   -6.427537E-03	    1.031064E-02	    0.000000E+00	    1.000000E-03	    1.000000E-03	    1.000000E+03	    0.000000E+00	    0.000000E+00	    0.000000E+00	    0.000000E+00	
   -5.355612E-03	    1.090596E-02	    0.000000E+00	    1.000000E-03	    1.000000E-03	    1.000000E+03	    0.000000E+00	    0.000000E+00	    0.000000E+00	    0.000000E+00	
   -4.317385E-03	    1.135705E-02	    0.000000E+00	    1.000000E-03	    1.000000E-03	    1.000000E+03	    0.000000E+00	    0.000000E+00	    0.000000E+00	    0.000000E+00	
   -3.341750E-03	    1.168140E-02	    0.000000E+00	    1.000000E-03	    1.000000E-03	    1.000000E+03	    0.000000E+00	    0.000000E+00	    0.000000E+00	    0.000000E+00	
   -2.446578E-03	    1.190112E-02	    0.000000E+00	    1.000000E-03	    1.000000E-03	    1.000000E+03	    0.000000E+00	    0.000000E+00	    0.000000E+00	    0.000000E+00	
   -1.640220E-03	    1.203878E-02	    0.000000E+00	    1.000000E-03	    1.000000E-03	    1.000000E+03	    0.000000E+00	    0.000000E+00	    0.000000E+00	    0.000000E+00	
   -9.238769E-04	    1.211482E-02	    0.000000E+00	    1.000000E-03	    1.000000E-03	    1.000000E+03	    0.000000E+00	    0.000000E+00	    0.000000E+00	    0.000000E+00	
   -2.939862E-04	    1.214644E-02	    0.000000E+00	    1.000000E-03	    1.000000E-03	    1.000000E+03	    0.000000E+00	    0.000000E+00	    0.000000E+00	    0.000000E+00	
    2.939862E-04	    1.214644E-02	    0.000000E+00	    1.000000E-03	    1.000000E-03	    1.000000E+03	    0.000000E+00	    0.000000E+00	    0.000000E+00	    0.000000E+00	
    9.238769E-04	    1.211482E-02	    0.000000E+00	    1.000000E-03	    1.000000E-03	    1.000000E+03	    0.000000E+00	    0.000000E+00	    0.000000E+00	    0.000000E+00	
    1.640220E-03	    1.203878E-02	    0.000000E+00	    1.000000E-03	    1.000000E-03	    1.000000E+03	    0.000000E+00	    0.000000E+00	    0.000000E+00	    0.000000E+00	
    2.446578E-03	    1.190112E-02	    0.000000E+00	    1.000000E-03	    1.000000E-03	    1.000000E+03	    0.000000E+00	    0.000000E+00	    0.000000E+00	    0.000000E+00	
    3.341750E-03	    1.168140E-02	    0.000000E+00	    1.000000E-03	    1.000000E-03	    1.000000E+03	    0.000000E+00	    0.000000E+00	    0.000000E+00	    0.000000E+00	
    4.317385E-03	    1.135705E-02	    0.000000E+00	    1.000000E-03	    1.000000E-03	    1.000000E+03	    0.000000E+00	    0.000000E+00	    0.000000E+00	    0.000000E+00	
    5.355612E-03	    1.090596E-02	    0.000000E+00	    1.000000E-03	    1.000000E-03	    1.000000E+03	    0.000000E+00	    0.000000E+00	    0.000000E+00	    0.000000E+00	
    6.427537E-03	    1.031064E-02	    0.000000E+00	    1.000000E-03	    1.000000E-03	    1.000000E+03	    0.000000E+00	    0.000000E+00	    0.000000E+00	    0.000000E+00	
    7.493806E-03	    9.563753E-03	    0.000000E+00	    1.000000E-03	    1.000000E-03	    1.000000E+03	    0.000000E+00	    0.000000E+00	    0.000000E+00	    0.000000E+00	
    8.508323E-03	    8.673577E-03	    0.000000E+00	    1.000000E-03	    1.000000E-03	    1.000000E+03	    0.000000E+00	    0.000000E+00	    0.000000E+00	    0.000000E+00	
    9.425249E-03	    7.667280E-03	    0.000000E+00	    1.000000E-03	    1.000000E-03	    1.000000E+03	    0.000000E+00	    0.000000E+00	    0.000000E+00	    0.000000E+00	
    1.020773E-02	    6.589745E-03	    0.000000E+00	    1.000000E-03	    1.000000E-03	    1.000000E+03	    0.000000E+00	    0.000000E+00	    0.000000E+00	    0.000000E+00	
    1.083529E-02	    5.497176E-03	    0.000000E+00	    1.000000E-03	    1.000000E-03	    1.000000E+03	    0.000000E+00	    0.000000E+00	    0.000000E+00	    0.000000E+00	
    1.130687E-02	    4.447143E-03	    0.000000E+00	    1.000000E-03	    1.000000E-03	    1.000000E+03	    0.000000E+00	    0.000000E+00	    0.000000E+00	    0.000000E+00	
    1.163841E-02	    3.488544E-03	    0.000000E+00	    1.000000E-03	    1.000000E-03	    1.000000E+03	    0.000000E+00	    0.000000E+00	    0.000000E+00	    0.000000E+00	
    1.185642E-02	    2.654783E-03	    0.000000E+00	    1.000000E-03	    1.000000E-03	    1.000000E+03	    0.000000E+00	    0.000000E+00	    0.000000E+00	    0.000000E+00	
    1.199060E-02	    1.961617E-03	    0.000000E+00	    1.000000E-03	    1.000000E-03	    1.000000E+03	    0.000000E+00	    0.000000E+00	    0.000000E+00	    0.000000E+00	
    1.206802E-02	    1.409020E-03	    0.000000E+00	    1.000000E-03	    1.000000E-03	    1.000000E+03	    0.000000E+00	    0.000000E+00	    0.000000E+00	    0.000000E+00	
    1.210998E-02	    9.853660E-04	    0.000000E+00	    1.000000E-03	    1.000000E-03	    1.000000E+03	    0.000000E+00	    0.000000E+00	    0.000000E+00	    0.000000E+00	
    1.213139E-02	    6.721802E-04	    0.000000E+00	    1.000000E-03	    1.000000E-03	    1.000000E+03	    0.000000E+00	    0.000000E+00	    0.000000E+00	    0.000000E+00	
    1.214172E-02	    4.483581E-04	    0.000000E+00	    1.000000E-03	    1.000000E-03	    1.000000E+03	    0.000000E+00	    0.000000E+00	    0.000000E+00	    0.000000E+00	
    1.214646E-02	    2.932944E-04	    0.000000E+00	    1.000000E-03	    1.000000E-03	    1.000000E+03	    0.000000E+00	    0.000000E+00	    0.000000E+00	    0.000000E+00	
    1.214853E-02	    1.888273E-04	    0.000000E+00	    1.000000E-03	    1.000000E-03	    1.000000E+03	    0.000000E+00	    0.000000E+00	    0.000000E+00	    0.000000E+00	
    1.214941E-02	    1.201401E-04	    0.000000E+00	    1.000000E-03	    1.000000E-03	    1.000000E+03	    0.000000E+00	    0.000000E+00	    0.000000E+00	    0.000000E+00	
    1.214976E-02	    7.588291E-05	    0.000000E+00	    1.000000E-03	    1.000000E-03	    1.000000E+03	    0.000000E+00	    0.000000E+00	    0.000000E+00	    0.000000E+00	
    1.214985E-02	    6.023331E-05	    0.000000E+00	    1.000000E-03	    1.000000E-03	    1.000000E+03	    0.000000E+00	    0.000000E+00	    0.000000E+00	    0.000000E+00	
   -1.214944E-02	    6.022988E-05	    0.000000E+00	    1.000000E-03	    1.000000E-03	    1.000000E+03	    0.000000E+00	    0.000000E+00	    0.000000E+00	    0.000000E+00	
   -1.214925E-02	    7.587793E-05	    1.011985E-04	    1.000601E-03	    1.000000E-03	    1.000000E+03	    3.005081E-06	    6.716128E-04	    2.234924E+05	    3.811482E+04	
   -1.214859E-02	    1.201292E-04	    3.144409E-04	    1.000618E-03	    1.000000E-03	    1.000000E+03	    3.091513E-06	    2.835774E-04	    9.172773E+04	    1.478107E+05	
   -1.214725E-02	    1.888030E-04	    5.905663E-04	    1.001084E-03	    1.000000E-03	    1.000000E+03	    5.419718E-06	    3.528139E-04	    6.509819E+04	    2.109440E+05	
   -1.214446E-02	    2.932395E-04	    9.764569E-04	    1.001965E-03	    1.000000E-03	    1.000000E+03	    9.825296E-06	    4.806522E-04	    4.891987E+04	    2.387906E+05	
   -1.213868E-02	    4.482352E-04	    1.533382E-03	    1.003424E-03	    1.000000E-03	    1.000000E+03	    1.712186E-05	    6.246497E-04	    3.648260E+04	    2.515618E+05	
   -1.212683E-02	    6.719117E-04	    2.335376E-03	    1.005748E-03	    1.000000E-03	    1.000000E+03	    2.873853E-05	    7.830639E-04	    2.724788E+04	    2.589274E+05	
   -1.210330E-02	    9.847997E-04	    3.465070E-03	    1.009293E-03	    1.000000E-03	    1.000000E+03	    4.646618E-05	    9.527837E-04	    2.050489E+04	    2.641575E+05	
   -1.205851E-02	    1.407877E-03	    5.006087E-03	    1.014457E-03	    1.000000E-03	    1.000000E+03	    7.228363E-05	    1.127882E-03	    1.560357E+04	    2.679502E+05	
   -1.197744E-02	    1.959419E-03	    7.030819E-03	    1.021618E-03	    1.000000E-03	    1.000000E+03	    1.080906E-04	    1.301669E-03	    1.204239E+04	    2.701255E+05	
   -1.183881E-02	    2.650781E-03	    9.583545E-03	    1.031065E-03	    1.000000E-03	    1.000000E+03	    1.553234E-04	    1.468036E-03	    9.451482E+03	    2.702177E+05	
   -1.161571E-02	    3.481661E-03	    1.266192E-02	    1.042899E-03	    1.000000E-03	    1.000000E+03	    2.144931E-04	    1.622041E-03	    7.562208E+03	    2.677748E+05	
   -1.127878E-02	    4.435991E-03	    1.620217E-02	    1.056952E-03	    1.000000E-03	    1.000000E+03	    2.847603E-04	    1.760164E-03	    6.181212E+03	    2.626653E+05	
   -1.080204E-02	    5.480176E-03	    2.007381E-02	    1.072742E-03	    1.000000E-03	    1.000000E+03	    3.637124E-04	    1.880390E-03	    5.169992E+03	    2.553124E+05	
   -1.017020E-02	    6.565361E-03	    2.409027E-02	    1.089501E-03	    1.000000E-03	    1.000000E+03	    4.475054E-04	    1.982144E-03	    4.429319E+03	    2.466411E+05	
   -9.384949E-03	    7.634319E-03	    2.803685E-02	    1.106283E-03	    1.000000E-03	    1.000000E+03	    5.314152E-04	    2.065962E-03	    3.887660E+03	    2.377386E+05	
   -8.467191E-03	    8.631447E-03	    3.170832E-02	    1.122136E-03	    1.000000E-03	    1.000000E+03	    6.106805E-04	    2.133105E-03	    3.492997E+03	    2.294875E+05	
   -7.453881E-03	    9.512579E-03	    3.494401E-02	    1.136276E-03	    1.000000E-03	    1.000000E+03	    6.813820E-04	    2.185348E-03	    3.207229E+03	    2.224064E+05	
   -6.390633E-03	    1.025120E-02	    3.764946E-02	    1.148209E-03	    1.000000E-03	    1.000000E+03	    7.410429E-04	    2.224806E-03	    3.002264E+03	    2.166820E+05	
   -5.323099E-03	    1.083950E-02	    3.979922E-02	    1.157755E-03	    1.000000E-03	    1.000000E+03	    7.887765E-04	    2.253725E-03	    2.857241E+03	    2.122770E+05	
   -4.290097E-03	    1.128501E-02	    4.142379E-02	    1.165006E-03	    1.000000E-03	    1.000000E+03	    8.250315E-04	    2.274255E-03	    2.756568E+03	    2.090344E+05	
   -3.320029E-03	    1.160521E-02	    4.258917E-02	    1.170227E-03	    1.000000E-03	    1.000000E+03	    8.511349E-04	    2.288309E-03	    2.688539E+03	    2.067521E+05	
   -2.430378E-03	    1.182205E-02	    4.337693E-02	    1.173766E-03	    1.000000E-03	    1.000000E+03	    8.688280E-04	    2.297485E-03	    2.644350E+03	    2.052266E+05	
   -1.629235E-03	    1.195787E-02	    4.386930E-02	    1.175982E-03	    1.000000E-03	    1.000000E+03	    8.799109E-04	    2.303069E-03	    2.617389E+03	    2.042755E+05	
   -9.176506E-04	    1.203290E-02	    4.414026E-02	    1.177205E-03	    1.000000E-03	    1.000000E+03	    8.860254E-04	    2.306062E-03	    2.602704E+03	    2.037462E+05	
   -2.919998E-04	    1.206409E-02	    4.425157E-02	    1.177711E-03	    1.000000E-03	    1.000000E+03	    8.885534E-04	    2.307222E-03	    2.596604E+03	    2.035161E+05	
    2.919998E-04	    1.206409E-02	    4.425157E-02	    1.177711E-03	    1.000000E-03	    1.000000E+03	    8.885534E-04	    2.307222E-03	    2.596604E+03	    2.035161E+05	
    9.176506E-04	    1.203290E-02	    4.414026E-02	    1.177205E-03	    1.000000E-03	    1.000000E+03	    8.860254E-04	    2.306062E-03	    2.602704E+03	    2.037462E+05	
    1.629235E-03	    1.195787E-02	    4.386930E-02	    1.175982E-03	    1.000000E-03	    1.000000E+03	    8.799109E-04	    2.303069E-03	    2.617389E+03	    2.042755E+05	
    2.430378E-03	    1.182205E-02	    4.337693E-02	    1.173766E-03	    1.000000E-03	    1.000000E+03	    8.688280E-04	    2.297485E-03	    2.644350E+03	    2.052266E+05	
    3.320029E-03	    1.160521E-02	    4.258917E-02	    1.170227E-03	    1.000000E-03	    1.000000E+03	    8.511349E-04	    2.288309E-03	    2.688539E+03	    2.067521E+05	
    4.290097E-03	    1.128501E-02	    4.142379E-02	    1.165006E-03	    1.000000E-03	    1.000000E+03	    8.250315E-04	    2.274255E-03	    2.756568E+03	    2.090344E+05	
    5.323099E-03	    1.083950E-02	    3.979922E-02	    1.157755E-03	    1.000000E-03	    1.000000E+03	    7.887765E-04	    2.253725E-03	    2.857241E+03	    2.122770E+05	
    6.390633E-03	    1.025120E-02	    3.764946E-02	    1.148209E-03	    1.000000E-03	    1.000000E+03	    7.410429E-04	    2.224806E-03	    3.002264E+03	    2.166820E+05	
    7.453881E-03	    9.512579E-03	    3.494401E-02	    1.136276E-03	    1.000000E-03	    1.000000E+03	    6.813820E-04	    2.185348E-03	    3.207229E+03	    2.224064E+05	
    8.467191E-03	    8.631447E-03	    3.170832E-02	    1.122136E-03	    1.000000E-03	    1.000000E+03	    6.106805E-04	    2.133105E-03	    3.492997E+03	    2.294875E+05	
    9.384949E-03	    7.634319E-03	    2.803685E-02	    1.106283E-03	    1.000000E-03	    1.000000E+03	    5.314152E-04	    2.065962E-03	    3.887660E+03	    2.377386E+05	
    1.017020E-02	    6.565361E-03	    2.409027E-02	    1.089501E-03	    1.000000E-03	    1.000000E+03	    4.475054E-04	    1.982144E-03	    4.429319E+03	    2.466411E+05	
    1.080204E-02	    5.480176E-03	    2.007381E-02	    1.072742E-03	    1.000000E-03	    1.000000E+03	    3.637124E-04	    1.880390E-03	    5.169992E+03	    2.553124E+05	
    1.127878E-02	    4.435991E-03	    1.620217E-02	    1.056952E-03	    1.000000E-03	    1.000000E+03	    2.847603E-04	    1.760164E-03	    6.181212E+03	    2.626653E+05	
    1.161571E-02	    3.481661E-03	    1.266192E-02	    1.042899E-03	    1.000000E-03	    1.000000E+03	    2.144931E-04	    1.622041E-03	    7.562208E+03	    2.677748E+05	
    1.183881E-02	    2.650781E-03	    9.583546E-03	    1.031065E-03	    1.000000E-03	    1.000000E+03	    1.553234E-04	    1.468036E-03	    9.451482E+03	    2.702177E+05	
    1.197744E-02	    1.959419E-03	    7.030819E-03	    1.021618E-03	    1.000000E-03	    1.000000E+03	    1.080906E-04	    1.301669E-03	    1.204239E+04	    2.701255E+05	
    1.205851E-02	    1.407877E-03	    5.006087E-03	    1.014457E-03	    1.000000E-03	    1.000000E+03	    7.228363E-05	    1.127882E-03	    1.560357E+04	    2.679502E+05	
    1.210330E-02	    9.847997E-04	    3.465070E-03	    1.009293E-03	    1.000000E-03	    1.000000E+03	    4.646618E-05	    9.527838E-04	    2.050489E+04	    2.641575E+05	
    1.212683E-02	    6.719117E-04	    2.335376E-03	    1.005748E-03	    1.000000E-03	    1.000000E+03	    2.873853E-05	    7.830639E-04	    2.724788E+04	    2.589274E+05	
    1.213868E-02	    4.482352E-04	    1.533382E-03	    1.003424E-03	    1.000000E-03	    1.000000E+03	    1.712186E-05	    6.246497E-04	    3.648260E+04	    2.515618E+05	
    1.214446E-02	    2.932395E-04	    9.764569E-04	    1.001965E-03	    1.000000E-03	    1.000000E+03	    9.825296E-06	    4.806522E-04	    4.891987E+04	    2.387906E+05	
    1.214725E-02	    1.888030E-04	    5.905663E-04	    1.001084E-03	    1.000000E-03	    1.000000E+03	    5.419718E-06	    3.528139E-04	    6.509819E+04	    2.109440E+05	
    1.214859E-02	    1.201292E-04	    3.144409E-04	    1.000618E-03	    1.000000E-03	    1.000000E+03	    3.091513E-06	    2.835775E-04	    9.172773E+04	    1.478107E+05	
    1.214925E-02	    7.587793E-05	    1.011985E-04	    1.000601E-03	    1.000000E-03	    1.000000E+03	    3.005082E-06	    6.716129E-04	    2.234924E+05	    3.811482E+04	
    1.214944E-02	    6.022988E-05	    0.000000E+00	    1.000000E-03	    1.000000E-03	    1.000000E+03	    0.000000E+00	    0.000000E+00	    0.000000E+00	    0.000000E+00	
   -1.214849E-02	    6.021126E-05	    0.000000E+00	    1.000000E-03	    1.000000E-03	    1.000000E+03	    0.000000E+00	    0.000000E+00	    0.000000E+00	    0.000000E+00	
   -1.214805E-02	    7.585293E-05	    3.333804E-04	    1.018225E-03	    1.000000E-03	    1.000000E+03	    9.112292E-05	    6.724432E-04	    7.379518E+03	    3.773891E+04	
   -1.214670E-02	    1.200827E-04	    1.041373E-03	    1.000647E-03	    1.000000E-03	    1.000000E+03	    3.233005E-06	    2.576506E-04	    7.969386E+04	    1.477577E+05	
   -1.214428E-02	    1.887132E-04	    1.955064E-03	    1.001100E-03	    1.000000E-03	    1.000000E+03	    5.501671E-06	    3.000995E-04	    5.454698E+04	    2.106215E+05	
   -1.213985E-02	    2.930603E-04	    3.230030E-03	    1.002004E-03	    1.000000E-03	    1.000000E+03	    1.002055E-05	    3.877388E-04	    3.869437E+04	    2.381055E+05	
   -1.213163E-02	    4.478714E-04	    5.065777E-03	    1.003542E-03	    1.000000E-03	    1.000000E+03	    1.771032E-05	    4.773103E-04	    2.695097E+04	    2.503156E+05	
   -1.211628E-02	    6.711718E-04	    7.699582E-03	    1.006105E-03	    1.000000E-03	    1.000000E+03	    3.052278E-05	    5.680810E-04	    1.861171E+04	    2.567474E+05	
   -1.208787E-02	    9.833170E-04	    1.138821E-02	    1.010339E-03	    1.000000E-03	    1.000000E+03	    5.169665E-05	    6.642883E-04	    1.284973E+04	    2.603420E+05	
   -1.203654E-02	    1.404988E-03	    1.637484E-02	    1.017365E-03	    1.000000E-03	    1.000000E+03	    8.682289E-05	    7.758381E-04	    8.935871E+03	    2.611246E+05	
   -1.194710E-02	    1.954003E-03	    2.283562E-02	    1.029150E-03	    1.000000E-03	    1.000000E+03	    1.457479E-04	    9.195756E-04	    6.309358E+03	    2.576595E+05	
   -1.179828E-02	    2.641094E-03	    3.080579E-02	    1.048920E-03	    1.000000E-03	    1.000000E+03	    2.446011E-04	    1.115785E-03	    4.561651E+03	    2.479050E+05	
   -1.156353E-02	    3.465219E-03	    4.010572E-02	    1.081020E-03	    1.000000E-03	    1.000000E+03	    4.051022E-04	    1.379303E-03	    3.404826E+03	    2.309771E+05	
   -1.121431E-02	    4.409613E-03	    5.031425E-02	    1.129468E-03	    1.000000E-03	    1.000000E+03	    6.473409E-04	    1.708827E-03	    2.639764E+03	    2.087056E+05	
   -1.072585E-02	    5.440268E-03	    6.083477E-02	    1.195537E-03	    1.000000E-03	    1.000000E+03	    9.776857E-04	    2.082931E-03	    2.130471E+03	    1.846735E+05	
   -1.008439E-02	    6.508462E-03	    7.103728E-02	    1.276300E-03	    1.000000E-03	    1.000000E+03	    1.381499E-03	    2.468143E-03	    1.786569E+03	    1.620818E+05	
   -9.292997E-03	    7.557772E-03	    8.039672E-02	    1.365374E-03	    1.000000E-03	    1.000000E+03	    1.826872E-03	    2.832128E-03	    1.550261E+03	    1.427364E+05	
   -8.373516E-03	    8.533981E-03	    8.856455E-02	    1.455055E-03	    1.000000E-03	    1.000000E+03	    2.275276E-03	    3.152314E-03	    1.385465E+03	    1.271871E+05	
   -7.363100E-03	    9.394554E-03	    9.537574E-02	    1.538430E-03	    1.000000E-03	    1.000000E+03	    2.692149E-03	    3.417852E-03	    1.269562E+03	    1.152317E+05	
   -6.306838E-03	    1.011445E-02	    1.008197E-01	    1.610698E-03	    1.000000E-03	    1.000000E+03	    3.053488E-03	    3.627460E-03	    1.187973E+03	    1.063417E+05	
   -5.249351E-03	    1.068685E-02	    1.049964E-01	    1.669531E-03	    1.000000E-03	    1.000000E+03	    3.347653E-03	    3.785934E-03	    1.130922E+03	    9.991522E+04	
   -4.228253E-03	    1.111976E-02	    1.080713E-01	    1.714721E-03	    1.000000E-03	    1.000000E+03	    3.573604E-03	    3.900986E-03	    1.091611E+03	    9.539726E+04	
   -3.270831E-03	    1.143059E-02	    1.102361E-01	    1.747493E-03	    1.000000E-03	    1.000000E+03	    3.737467E-03	    3.981037E-03	    1.065170E+03	    9.232122E+04	
   -2.393701E-03	    1.164095E-02	    1.116807E-01	    1.769809E-03	    1.000000E-03	    1.000000E+03	    3.849043E-03	    4.033965E-03	    1.048044E+03	    9.031395E+04	
   -1.604370E-03	    1.177265E-02	    1.125760E-01	    1.783825E-03	    1.000000E-03	    1.000000E+03	    3.919127E-03	    4.066534E-03	    1.037612E+03	    8.908541E+04	
   -9.035590E-04	    1.184538E-02	    1.130659E-01	    1.791570E-03	    1.000000E-03	    1.000000E+03	    3.957849E-03	    4.084248E-03	    1.031936E+03	    8.841431E+04	
   -2.875043E-04	    1.187562E-02	    1.132663E-01	    1.794770E-03	    1.000000E-03	    1.000000E+03	    3.973850E-03	    4.091415E-03	    1.029585E+03	    8.813413E+04	
    2.875043E-04	    1.187562E-02	    1.132663E-01	    1.794770E-03	    1.000000E-03	    1.000000E+03	    3.973850E-03	    4.091415E-03	    1.029585E+03	    8.813413E+04	
    9.035590E-04	    1.184538E-02	    1.130659E-01	    1.791570E-03	    1.000000E-03	    1.000000E+03	    3.957849E-03	    4.084248E-03	    1.031936E+03	    8.841431E+04	
    1.604370E-03	    1.177265E-02	    1.125760E-01	    1.783825E-03	    1.000000E-03	    1.000000E+03	    3.919127E-03	    4.066534E-03	    1.037612E+03	    8.908541E+04	
    2.393701E-03	    1.164095E-02	    1.116807E-01	    1.769809E-03	    1.000000E-03	    1.000000E+03	    3.849043E-03	    4.033965E-03	    1.048044E+03	    9.031395E+04	
    3.270831E-03	    1.143059E-02	    1.102361E-01	    1.747493E-03	    1.000000E-03	    1.000000E+03	    3.737467E-03	    3.981037E-03	    1.065170E+03	    9.232122E+04	
    4.228253E-03	    1.111976E-02	    1.080713E-01	    1.714721E-03	    1.000000E-03	    1.000000E+03	    3.573604E-03	    3.900986E-03	    1.091611E+03	    9.539726E+04	
    5.249351E-03	    1.068685E-02	    1.049964E-01	    1.669531E-03	    1.000000E-03	    1.000000E+03	    3.347653E-03	    3.785934E-03	    1.130922E+03	    9.991522E+04	
    6.306838E-03	    1.011445E-02	    1.008197E-01	    1.610698E-03	    1.000000E-03	    1.000000E+03	    3.053488E-03	    3.627460E-03	    1.187973E+03	    1.063417E+05	
    7.363100E-03	    9.394554E-03	    9.537574E-02	    1.538430E-03	    1.000000E-03	    1.000000E+03	    2.692149E-03	    3.417852E-03	    1.269562E+03	    1.152317E+05	
    8.373516E-03	    8.533981E-03	    8.856455E-02	    1.455055E-03	    1.000000E-03	    1.000000E+03	    2.275276E-03	    3.152314E-03	    1.385465E+03	    1.271871E+05	
    9.292997E-03	    7.557772E-03	    8.039672E-02	    1.365374E-03	    1.000000E-03	    1.000000E+03	    1.826872E-03	    2.832128E-03	    1.550261E+03	    1.427364E+05	
    1.008439E-02	    6.508462E-03	    7.103728E-02	    1.276300E-03	    1.000000E-03	    1.000000E+03	    1.381499E-03	    2.468143E-03	    1.786569E+03	    1.620818E+05	
    1.072585E-02	    5.440268E-03	    6.083477E-02	    1.195537E-03	    1.000000E-03	    1.000000E+03	    9.776857E-04	    2.082931E-03	    2.130471E+03	    1.846735E+05	
    1.121431E-02	    4.409613E-03	    5.031425E-02	    1.129468E-03	    1.000000E-03	    1.000000E+03	    6.473409E-04	    1.708827E-03	    2.639764E+03	    2.087056E+05	
    1.156353E-02	    3.465219E-03	    4.010572E-02	    1.081020E-03	    1.000000E-03	    1.000000E+03	    4.051022E-04	    1.379303E-03	    3.404826E+03	    2.309771E+05	
    1.179828E-02	    2.641094E-03	    3.080579E-02	    1.048920E-03	    1.000000E-03	    1.000000E+03	    2.446011E-04	    1.115785E-03	    4.561651E+03	    2.479050E+05	
    1.194710E-02	    1.954003E-03	    2.283562E-02	    1.029150E-03	    1.000000E-03	    1.000000E+03	    1.457479E-04	    9.195756E-04	    6.309358E+03	    2.576595E+05	
    1.203654E-02	    1.404988E-03	    1.637484E-02	    1.017365E-03	    1.000000E-03	    1.000000E+03	    8.682289E-05	    7.758381E-04	    8.935871E+03	    2.611246E+05	
    1.208787E-02	    9.833170E-04	    1.138821E-02	    1.010339E-03	    1.000000E-03	    1.000000E+03	    5.169665E-05	    6.642883E-04	    1.284973E+04	    2.603420E+05	
    1.211628E-02	    6.711718E-04	    7.699582E-03	    1.006105E-03	    1.000000E-03	    1.000000E+03	    3.052278E-05	    5.680811E-04	    1.861171E+04	    2.567474E+05	
    1.213163E-02	    4.478714E-04	    5.065777E-03	    1.003542E-03	    1.000000E-03	    1.000000E+03	    1.771032E-05	    4.773103E-04	    2.695097E+04	    2.503156E+05	
    1.213985E-02	    2.930603E-04	    3.230030E-03	    1.002004E-03	    1.000000E-03	    1.000000E+03	    1.002055E-05	    3.877388E-04	    3.869437E+04	    2.381055E+05	
    1.214428E-02	    1.887132E-04	    1.955064E-03	    1.001100E-03	    1.000000E-03	    1.000000E+03	    5.501671E-06	    3.000995E-04	    5.454698E+04	    2.106215E+05	
    1.214670E-02	    1.200827E-04	    1.041373E-03	    1.000647E-03	    1.000000E-03	    1.000000E+03	    3.233005E-06	    2.576506E-04	    7.969387E+04	    1.477577E+05	
    1.214805E-02	    7.585293E-05	    3.333804E-04	    1.018225E-03	    1.000000E-03	    1.000000E+03	    9.112292E-05	    6.724432E-04	    7.379518E+03	    3.773891E+04	
    1.214849E-02	    6.021126E-05	    0.000000E+00	    1.000000E-03	    1.000000E-03	    1.000000E+03	    0.000000E+00	    0.000000E+00	    0.000000E+00	    0.000000E+00	
   -1.214725E-02	    6.016429E-05	    0.000000E+00	    1.000000E-03	    1.000000E-03	    1.000000E+03	    0.000000E+00	    0.000000E+00	    0.000000E+00	    0.000000E+00	
   -1.214649E-02	    7.579175E-05	    6.341800E-04	    1.018257E-03	    1.000000E-03	    1.000000E+03	    9.128691E-05	    6.750215E-04	    7.394506E+03	    3.831058E+04	
   -1.214422E-02	    1.199769E-04	    1.992479E-03	    1.000693E-03	    1.000000E-03	    1.000000E+03	    3.465461E-06	    2.326971E-04	    6.714750E+04	    1.480202E+05	
   -1.214039E-02	    1.885249E-04	    3.740082E-03	    1.001132E-03	    1.000000E-03	    1.000000E+03	    5.659534E-06	    2.502798E-04	    4.422269E+04	    2.105813E+05	
   -1.213382E-02	    2.927161E-04	    6.177117E-03	    1.002089E-03	    1.000000E-03	    1.000000E+03	    1.044476E-05	    3.085817E-04	    2.954417E+04	    2.378376E+05	
   -1.212242E-02	    4.472279E-04	    9.682457E-03	    1.003833E-03	    1.000000E-03	    1.000000E+03	    1.916727E-05	    3.690539E-04	    1.925438E+04	    2.497345E+05	
   -1.210249E-02	    6.699538E-04	    1.470253E-02	    1.007123E-03	    1.000000E-03	    1.000000E+03	    3.561616E-05	    4.413563E-04	    1.239202E+04	    2.554699E+05	
   -1.206773E-02	    9.810134E-04	    2.170752E-02	    1.013795E-03	    1.000000E-03	    1.000000E+03	    6.897683E-05	    5.499770E-04	    7.973358E+03	    2.571334E+05	
   -1.200791E-02	    1.400696E-03	    3.110110E-02	    1.028359E-03	    1.000000E-03	    1.000000E+03	    1.417955E-04	    7.368283E-04	    5.196414E+03	    2.526232E+05	
   -1.190762E-02	    1.946225E-03	    4.305090E-02	    1.060629E-03	    1.000000E-03	    1.000000E+03	    3.031437E-04	    1.056182E-03	    3.484097E+03	    2.374518E+05	
   -1.174564E-02	    2.627527E-03	    5.725646E-02	    1.126406E-03	    1.000000E-03	    1.000000E+03	    6.320305E-04	    1.544218E-03	    2.443265E+03	    2.096724E+05	
   -1.149593E-02	    3.442626E-03	    7.286269E-02	    1.240176E-03	    1.000000E-03	    1.000000E+03	    1.200881E-03	    2.174053E-03	    1.810382E+03	    1.742139E+05	
   -1.113101E-02	    4.373894E-03	    8.874072E-02	    1.403750E-03	    1.000000E-03	    1.000000E+03	    2.018751E-03	    2.856969E-03	    1.415216E+03	    1.390209E+05	
   -1.062774E-02	    5.386849E-03	    1.038955E-01	    1.604697E-03	    1.000000E-03	    1.000000E+03	    3.023486E-03	    3.499931E-03	    1.157581E+03	    1.093397E+05	
   -9.974222E-03	    6.432998E-03	    1.176483E-01	    1.823971E-03	    1.000000E-03	    1.000000E+03	    4.119856E-03	    4.048497E-03	    9.826792E+02	    8.662358E+04	
   -9.175319E-03	    7.457009E-03	    1.296206E-01	    2.042949E-03	    1.000000E-03	    1.000000E+03	    5.214745E-03	    4.487492E-03	    8.605391E+02	    7.014467E+04	
   -8.253981E-03	    8.406453E-03	    1.396649E-01	    2.246769E-03	    1.000000E-03	    1.000000E+03	    6.233843E-03	    4.824318E-03	    7.738915E+02	    5.851439E+04	
   -7.247557E-03	    9.240863E-03	    1.478022E-01	    2.425418E-03	    1.000000E-03	    1.000000E+03	    7.127088E-03	    5.075094E-03	    7.120852E+02	    5.041825E+04	