Title="Fields"
Variables="X""Y""Velocity""Phi""Effective Viscosity""Dynamic Viscosity""Density""Eddy Viscosity""K""Omega""S"
Zone I=52 J=52 F=POINT
   -2.631625E-02	    1.224097E-04	    0.000000E+00	    0.000000E+00	    1.000000E-03	    1.000000E-03	    1.000000E+03	    0.000000E+00	    0.000000E+00	    0.000000E+00	    0.000000E+00	
   -2.632781E-02	    1.542826E-04	    0.000000E+00	    0.000000E+00	    1.000000E-03	    1.000000E-03	    1.000000E+03	    0.000000E+00	    0.000000E+00	    0.000000E+00	    0.000000E+00	
   -2.636032E-02	    2.445735E-04	    0.000000E+00	    0.000000E+00	    1.000000E-03	    1.000000E-03	    1.000000E+03	    0.000000E+00	    0.000000E+00	    0.000000E+00	    0.000000E+00	
   -2.641025E-02	    3.851585E-04	    0.000000E+00	    0.000000E+00	    1.000000E-03	    1.000000E-03	    1.000000E+03	    0.000000E+00	    0.000000E+00	    0.000000E+00	    0.000000E+00	
   -2.648494E-02	    6.000385E-04	    0.000000E+00	    0.000000E+00	    1.000000E-03	    1.000000E-03	    1.000000E+03	    0.000000E+00	    0.000000E+00	    0.000000E+00	    0.000000E+00	
   -2.659301E-02	    9.213786E-04	    0.000000E+00	    0.000000E+00	    1.000000E-03	    1.000000E-03	    1.000000E+03	    0.000000E+00	    0.000000E+00	    0.000000E+00	    0.000000E+00	
   -2.674300E-02	    1.390308E-03	    0.000000E+00	    0.000000E+00	    1.000000E-03	    1.000000E-03	    1.000000E+03	    0.000000E+00	    0.000000E+00	    0.000000E+00	    0.000000E+00	
   -2.694069E-02	    2.056785E-03	    0.000000E+00	    0.000000E+00	    1.000000E-03	    1.000000E-03	    1.000000E+03	    0.000000E+00	    0.000000E+00	    0.000000E+00	    0.000000E+00	
   -2.718471E-02	    2.978049E-03	    0.000000E+00	    0.000000E+00	    1.000000E-03	    1.000000E-03	    1.000000E+03	    0.000000E+00	    0.000000E+00	    0.000000E+00	    0.000000E+00	
   -2.746039E-02	    4.215080E-03	    0.000000E+00	    0.000000E+00	    1.000000E-03	    1.000000E-03	    1.000000E+03	    0.000000E+00	    0.000000E+00	    0.000000E+00	    0.000000E+00	
   -2.773276E-02	    5.826324E-03	    0.000000E+00	    0.000000E+00	    1.000000E-03	    1.000000E-03	    1.000000E+03	    0.000000E+00	    0.000000E+00	    0.000000E+00	    0.000000E+00	
   -2.794028E-02	    7.857915E-03	    0.000000E+00	    0.000000E+00	    1.000000E-03	    1.000000E-03	    1.000000E+03	    0.000000E+00	    0.000000E+00	    0.000000E+00	    0.000000E+00	
   -2.799258E-02	    1.033017E-02	    0.000000E+00	    0.000000E+00	    1.000000E-03	    1.000000E-03	    1.000000E+03	    0.000000E+00	    0.000000E+00	    0.000000E+00	    0.000000E+00	
   -2.777580E-02	    1.322183E-02	    0.000000E+00	    0.000000E+00	    1.000000E-03	    1.000000E-03	    1.000000E+03	    0.000000E+00	    0.000000E+00	    0.000000E+00	    0.000000E+00	
   -2.716900E-02	    1.645655E-02	    0.000000E+00	    0.000000E+00	    1.000000E-03	    1.000000E-03	    1.000000E+03	    0.000000E+00	    0.000000E+00	    0.000000E+00	    0.000000E+00	
   -2.607084E-02	    1.989891E-02	    0.000000E+00	    0.000000E+00	    1.000000E-03	    1.000000E-03	    1.000000E+03	    0.000000E+00	    0.000000E+00	    0.000000E+00	    0.000000E+00	
   -2.442992E-02	    2.336696E-02	    0.000000E+00	    0.000000E+00	    1.000000E-03	    1.000000E-03	    1.000000E+03	    0.000000E+00	    0.000000E+00	    0.000000E+00	    0.000000E+00	
   -2.226629E-02	    2.666243E-02	    0.000000E+00	    0.000000E+00	    1.000000E-03	    1.000000E-03	    1.000000E+03	    0.000000E+00	    0.000000E+00	    0.000000E+00	    0.000000E+00	
   -1.967294E-02	    2.960985E-02	    0.000000E+00	    0.000000E+00	    1.000000E-03	    1.000000E-03	    1.000000E+03	    0.000000E+00	    0.000000E+00	    0.000000E+00	    0.000000E+00	
   -1.679501E-02	    3.208936E-02	    0.000000E+00	    0.000000E+00	    1.000000E-03	    1.000000E-03	    1.000000E+03	    0.000000E+00	    0.000000E+00	    0.000000E+00	    0.000000E+00	
   -1.379614E-02	    3.405089E-02	    0.000000E+00	    0.000000E+00	    1.000000E-03	    1.000000E-03	    1.000000E+03	    0.000000E+00	    0.000000E+00	    0.000000E+00	    0.000000E+00	
   -1.082626E-02	    3.550794E-02	    0.000000E+00	    0.000000E+00	    1.000000E-03	    1.000000E-03	    1.000000E+03	    0.000000E+00	    0.000000E+00	    0.000000E+00	    0.000000E+00	
   -8.001162E-03	    3.651809E-02	    0.000000E+00	    0.000000E+00	    1.000000E-03	    1.000000E-03	    1.000000E+03	    0.000000E+00	    0.000000E+00	    0.000000E+00	    0.000000E+00	
   -5.396077E-03	    3.716074E-02	    0.000000E+00	    0.000000E+00	    1.000000E-03	    1.000000E-03	    1.000000E+03	    0.000000E+00	    0.000000E+00	    0.000000E+00	    0.000000E+00	
   -3.049461E-03	    3.751906E-02	    0.000000E+00	    0.000000E+00	    1.000000E-03	    1.000000E-03	    1.000000E+03	    0.000000E+00	    0.000000E+00	    0.000000E+00	    0.000000E+00	
   -9.717020E-04	    3.766875E-02	    0.000000E+00	    0.000000E+00	    1.000000E-03	    1.000000E-03	    1.000000E+03	    0.000000E+00	    0.000000E+00	    0.000000E+00	    0.000000E+00	
    9.717020E-04	    3.766875E-02	    0.000000E+00	    0.000000E+00	    1.000000E-03	    1.000000E-03	    1.000000E+03	    0.000000E+00	    0.000000E+00	    0.000000E+00	    0.000000E+00	
    3.049461E-03	    3.751906E-02	    0.000000E+00	    0.000000E+00	    1.000000E-03	    1.000000E-03	    1.000000E+03	    0.000000E+00	    0.000000E+00	    0.000000E+00	    0.000000E+00	
    5.396077E-03	    3.716074E-02	    0.000000E+00	    0.000000E+00	    1.000000E-03	    1.000000E-03	    1.000000E+03	    0.000000E+00	    0.000000E+00	    0.000000E+00	    0.000000E+00	
    8.001162E-03	    3.651809E-02	    0.000000E+00	    0.000000E+00	    1.000000E-03	    1.000000E-03	    1.000000E+03	    0.000000E+00	    0.000000E+00	    0.000000E+00	    0.000000E+00	
    1.082626E-02	    3.550794E-02	    0.000000E+00	    0.000000E+00	    1.000000E-03	    1.000000E-03	    1.000000E+03	    0.000000E+00	    0.000000E+00	    0.000000E+00	    0.000000E+00	
    1.379614E-02	    3.405089E-02	    0.000000E+00	    0.000000E+00	    1.000000E-03	    1.000000E-03	    1.000000E+03	    0.000000E+00	    0.000000E+00	    0.000000E+00	    0.000000E+00	
    1.679501E-02	    3.208936E-02	    0.000000E+00	    0.000000E+00	    1.000000E-03	    1.000000E-03	    1.000000E+03	    0.000000E+00	    0.000000E+00	    0.000000E+00	    0.000000E+00	
    1.967294E-02	    2.960985E-02	    0.000000E+00	    0.000000E+00	    1.000000E-03	    1.000000E-03	    1.000000E+03	    0.000000E+00	    0.000000E+00	    0.000000E+00	    0.000000E+00	
    2.226629E-02	    2.666243E-02	    0.000000E+00	    0.000000E+00	    1.000000E-03	    1.000000E-03	    1.000000E+03	    0.000000E+00	    0.000000E+00	    0.000000E+00	    0.000000E+00	
    2.442992E-02	    2.336696E-02	    0.000000E+00	    0.000000E+00	    1.000000E-03	    1.000000E-03	    1.000000E+03	    0.000000E+00	    0.000000E+00	    0.000000E+00	    0.000000E+00	
    2.607084E-02	    1.989891E-02	    0.000000E+00	    0.000000E+00	    1.000000E-03	    1.000000E-03	    1.000000E+03	    0.000000E+00	    0.000000E+00	    0.000000E+00	    0.000000E+00	
    2.716900E-02	    1.645655E-02	    0.000000E+00	    0.000000E+00	    1.000000E-03	    1.000000E-03	    1.000000E+03	    0.000000E+00	    0.000000E+00	    0.000000E+00	    0.000000E+00	
    2.777580E-02	    1.322183E-02	    0.000000E+00	    0.000000E+00	    1.000000E-03	    1.000000E-03	    1.000000E+03	    0.000000E+00	    0.000000E+00	    0.000000E+00	    0.000000E+00	
    2.799258E-02	    1.033017E-02	    0.000000E+00	    0.000000E+00	    1.000000E-03	    1.000000E-03	    1.000000E+03	    0.000000E+00	    0.000000E+00	    0.000000E+00	    0.000000E+00	
    2.794028E-02	    7.857915E-03	    0.000000E+00	    0.000000E+00	    1.000000E-03	    1.000000E-03	    1.000000E+03	    0.000000E+00	    0.000000E+00	    0.000000E+00	    0.000000E+00	
    2.773276E-02	    5.826324E-03	    0.000000E+00	    0.000000E+00	    1.000000E-03	    1.000000E-03	    1.000000E+03	    0.000000E+00	    0.000000E+00	    0.000000E+00	    0.000000E+00	
    2.746039E-02	    4.215080E-03	    0.000000E+00	    0.000000E+00	    1.000000E-03	    1.000000E-03	    1.000000E+03	    0.000000E+00	    0.000000E+00	    0.000000E+00	    0.000000E+00	
    2.718471E-02	    2.978049E-03	    0.000000E+00	    0.000000E+00	    1.000000E-03	    1.000000E-03	    1.000000E+03	    0.000000E+00	    0.000000E+00	    0.000000E+00	    0.000000E+00	
    2.694069E-02	    2.056785E-03	    0.000000E+00	    0.000000E+00	    1.000000E-03	    1.000000E-03	    1.000000E+03	    0.000000E+00	    0.000000E+00	    0.000000E+00	    0.000000E+00	
    2.674300E-02	    1.390308E-03	    0.000000E+00	    0.000000E+00	    1.000000E-03	    1.000000E-03	    1.000000E+03	    0.000000E+00	    0.000000E+00	    0.000000E+00	    0.000000E+00	
    2.659301E-02	    9.213786E-04	    0.000000E+00	    0.000000E+00	    1.000000E-03	    1.000000E-03	    1.000000E+03	    0.000000E+00	    0.000000E+00	    0.000000E+00	    0.000000E+00	
    2.648494E-02	    6.000385E-04	    0.000000E+00	    0.000000E+00	    1.000000E-03	    1.000000E-03	    1.000000E+03	    0.000000E+00	    0.000000E+00	    0.000000E+00	    0.000000E+00	
    2.641025E-02	    3.851585E-04	    0.000000E+00	    0.000000E+00	    1.000000E-03	    1.000000E-03	    1.000000E+03	    0.000000E+00	    0.000000E+00	    0.000000E+00	    0.000000E+00	
    2.636032E-02	    2.445735E-04	    0.000000E+00	    0.000000E+00	    1.000000E-03	    1.000000E-03	    1.000000E+03	    0.000000E+00	    0.000000E+00	    0.000000E+00	    0.000000E+00	
    2.632781E-02	    1.542826E-04	    0.000000E+00	    0.000000E+00	    1.000000E-03	    1.000000E-03	    1.000000E+03	    0.000000E+00	    0.000000E+00	    0.000000E+00	    0.000000E+00	
    2.631625E-02	    1.224097E-04	    0.000000E+00	    0.000000E+00	    1.000000E-03	    1.000000E-03	    1.000000E+03	    0.000000E+00	    0.000000E+00	    0.000000E+00	    0.000000E+00	
   -2.631523E-02	    1.227768E-04	    0.000000E+00	    0.000000E+00	    1.000000E-03	    1.000000E-03	    1.000000E+03	    0.000000E+00	    0.000000E+00	    0.000000E+00	    0.000000E+00	
   -2.632652E-02	    1.547437E-04	    8.381957E-04	   -1.000000E+00	    1.642598E-03	    1.640000E-03	    7.900000E+02	    1.443603E-05	    3.525189E-03	    1.929132E+05	    2.393985E+05	
   -2.635828E-02	    2.452975E-04	    1.926864E-03	   -1.000000E+00	    1.643033E-03	    1.640000E-03	    7.900000E+02	    1.684772E-05	    1.910720E-03	    8.959480E+04	    5.087939E+05	
   -2.640702E-02	    3.862814E-04	    3.408120E-03	   -1.000000E+00	    1.645531E-03	    1.640000E-03	    7.900000E+02	    3.072618E-05	    2.562659E-03	    6.588845E+04	    6.410211E+05	
   -2.647990E-02	    6.017468E-04	    5.525704E-03	   -1.000000E+00	    1.649792E-03	    1.640000E-03	    7.900000E+02	    5.440168E-05	    3.310159E-03	    4.806883E+04	    6.928526E+05	
   -2.658523E-02	    9.239073E-04	    8.615147E-03	   -1.000000E+00	    1.656621E-03	    1.640000E-03	    7.900000E+02	    9.233763E-05	    4.044902E-03	    3.460639E+04	    7.119056E+05	
   -2.673119E-02	    1.393916E-03	    1.308409E-02	   -1.000000E+00	    1.667190E-03	    1.640000E-03	    7.900000E+02	    1.510563E-04	    4.754963E-03	    2.486768E+04	    7.173225E+05	
   -2.692310E-02	    2.061687E-03	    1.940576E-02	   -1.000000E+00	    1.682945E-03	    1.640000E-03	    7.900000E+02	    2.385820E-04	    5.421018E-03	    1.795024E+04	    7.148456E+05	
   -2.715901E-02	    2.984273E-03	    2.808723E-02	   -1.000000E+00	    1.705537E-03	    1.640000E-03	    7.900000E+02	    3.640948E-04	    6.023869E-03	    1.307038E+04	    7.044816E+05	
   -2.742366E-02	    4.222231E-03	    3.961698E-02	   -1.000000E+00	    1.736709E-03	    1.640000E-03	    7.900000E+02	    5.372696E-04	    6.550189E-03	    9.631383E+03	    6.842088E+05	
   -2.768151E-02	    5.833226E-03	    5.439211E-02	   -1.000000E+00	    1.778095E-03	    1.640000E-03	    7.900000E+02	    7.671917E-04	    6.993933E-03	    7.201860E+03	    6.524710E+05	
   -2.787070E-02	    7.862158E-03	    7.262248E-02	   -1.000000E+00	    1.830947E-03	    1.640000E-03	    7.900000E+02	    1.060817E-03	    7.356119E-03	    5.478169E+03	    6.103711E+05	
   -2.790100E-02	    1.032765E-02	    9.423404E-02	   -1.000000E+00	    1.895757E-03	    1.640000E-03	    7.900000E+02	    1.420875E-03	    7.642224E-03	    4.249042E+03	    5.622234E+05	
   -2.765960E-02	    1.320651E-02	    1.187698E-01	   -1.000000E+00	    1.971746E-03	    1.640000E-03	    7.900000E+02	    1.843032E-03	    7.856027E-03	    3.367419E+03	    5.134007E+05	
   -2.702767E-02	    1.642069E-02	    1.453124E-01	   -1.000000E+00	    2.056435E-03	    1.640000E-03	    7.900000E+02	    2.313526E-03	    7.998994E-03	    2.731418E+03	    4.680066E+05	
   -2.590703E-02	    1.983396E-02	    1.725323E-01	   -1.000000E+00	    2.145682E-03	    1.640000E-03	    7.900000E+02	    2.809344E-03	    8.075848E-03	    2.270964E+03	    4.282784E+05	
   -2.424987E-02	    2.326521E-02	    1.989046E-01	   -1.000000E+00	    2.234306E-03	    1.640000E-03	    7.900000E+02	    3.301702E-03	    8.098105E-03	    1.937638E+03	    3.950346E+05	
   -2.207924E-02	    2.651877E-02	    2.230138E-01	   -1.000000E+00	    2.317109E-03	    1.640000E-03	    7.900000E+02	    3.761717E-03	    8.082324E-03	    1.697373E+03	    3.682348E+05	
   -1.948958E-02	    2.942299E-02	    2.438195E-01	   -1.000000E+00	    2.389906E-03	    1.640000E-03	    7.900000E+02	    4.166146E-03	    8.045685E-03	    1.525652E+03	    3.473589E+05	
   -1.662550E-02	    3.186197E-02	    2.607888E-01	   -1.000000E+00	    2.450190E-03	    1.640000E-03	    7.900000E+02	    4.501055E-03	    8.002250E-03	    1.404510E+03	    3.316394E+05	
   -1.364847E-02	    3.378876E-02	    2.738787E-01	   -1.000000E+00	    2.497249E-03	    1.640000E-03	    7.900000E+02	    4.762497E-03	    7.961332E-03	    1.320621E+03	    3.202152E+05	
   -1.070547E-02	    3.521846E-02	    2.834144E-01	   -1.000000E+00	    2.531839E-03	    1.640000E-03	    7.900000E+02	    4.954663E-03	    7.927742E-03	    1.264045E+03	    3.122368E+05	
   -7.909385E-03	    3.620888E-02	    2.899306E-01	   -1.000000E+00	    2.555632E-03	    1.640000E-03	    7.900000E+02	    5.086842E-03	    7.902972E-03	    1.227352E+03	    3.069324E+05	
   -5.333104E-03	    3.683866E-02	    2.940326E-01	   -1.000000E+00	    2.570681E-03	    1.640000E-03	    7.900000E+02	    5.170452E-03	    7.886529E-03	    1.204993E+03	    3.036415E+05	
   -3.013535E-03	    3.718969E-02	    2.962995E-01	   -1.000000E+00	    2.579034E-03	    1.640000E-03	    7.900000E+02	    5.216857E-03	    7.876992E-03	    1.192830E+03	    3.018233E+05	
   -9.602091E-04	    3.733631E-02	    2.972325E-01	   -1.000000E+00	    2.582501E-03	    1.640000E-03	    7.900000E+02	    5.236118E-03	    7.872691E-03	    1.187793E+03	    3.010492E+05	
    9.602091E-04	    3.733631E-02	    2.972325E-01	   -1.000000E+00	    2.582501E-03	    1.640000E-03	    7.900000E+02	    5.236118E-03	    7.872691E-03	    1.187793E+03	    3.010492E+05	
    3.013535E-03	    3.718969E-02	    2.962995E-01	   -1.000000E+00	    2.579034E-03	    1.640000E-03	    7.900000E+02	    5.216857E-03	    7.876992E-03	    1.192830E+03	    3.018233E+05	
    5.333104E-03	    3.683866E-02	    2.940326E-01	   -1.000000E+00	    2.570681E-03	    1.640000E-03	    7.900000E+02	    5.170452E-03	    7.886529E-03	    1.204993E+03	    3.036415E+05	
    7.909385E-03	    3.620888E-02	    2.899306E-01	   -1.000000E+00	    2.555632E-03	    1.640000E-03	    7.900000E+02	    5.086842E-03	    7.902972E-03	    1.227352E+03	    3.069324E+05	
    1.070547E-02	    3.521846E-02	    2.834144E-01	   -1.000000E+00	    2.531839E-03	    1.640000E-03	    7.900000E+02	    4.954663E-03	    7.927742E-03	    1.264045E+03	    3.122368E+05	
    1.364847E-02	    3.378876E-02	    2.738787E-01	   -1.000000E+00	    2.497249E-03	    1.640000E-03	    7.900000E+02	    4.762497E-03	    7.961332E-03	    1.320621E+03	    3.202152E+05	
    1.662550E-02	    3.186197E-02	    2.607888E-01	   -1.000000E+00	    2.450190E-03	    1.640000E-03	    7.900000E+02	    4.501055E-03	    8.002250E-03	    1.404510E+03	    3.316394E+05	
    1.948958E-02	    2.942299E-02	    2.438195E-01	   -1.000000E+00	    2.389906E-03	    1.640000E-03	    7.900000E+02	    4.166146E-03	    8.045685E-03	    1.525652E+03	    3.473589E+05	
    2.207924E-02	    2.651877E-02	    2.230138E-01	   -1.000000E+00	    2.317109E-03	    1.640000E-03	    7.900000E+02	    3.761717E-03	    8.082324E-03	    1.697373E+03	    3.682348E+05	
    2.424987E-02	    2.326521E-02	    1.989046E-01	   -1.000000E+00	    2.234306E-03	    1.640000E-03	    7.900000E+02	    3.301702E-03	    8.098105E-03	    1.937638E+03	    3.950346E+05	
    2.590703E-02	    1.983396E-02	    1.725323E-01	   -1.000000E+00	    2.145682E-03	    1.640000E-03	    7.900000E+02	    2.809344E-03	    8.075848E-03	    2.270964E+03	    4.282784E+05	
    2.702767E-02	    1.642069E-02	    1.453124E-01	   -1.000000E+00	    2.056435E-03	    1.640000E-03	    7.900000E+02	    2.313526E-03	    7.998994E-03	    2.731418E+03	    4.680066E+05	
    2.765960E-02	    1.320651E-02	    1.187698E-01	   -1.000000E+00	    1.971746E-03	    1.640000E-03	    7.900000E+02	    1.843032E-03	    7.856027E-03	    3.367419E+03	    5.134007E+05	
    2.790100E-02	    1.032765E-02	    9.423404E-02	   -1.000000E+00	    1.895757E-03	    1.640000E-03	    7.900000E+02	    1.420875E-03	    7.642224E-03	    4.249042E+03	    5.622234E+05	
    2.787070E-02	    7.862158E-03	    7.262248E-02	   -1.000000E+00	    1.830947E-03	    1.640000E-03	    7.900000E+02	    1.060817E-03	    7.356119E-03	    5.478169E+03	    6.103711E+05	
    2.768151E-02	    5.833226E-03	    5.439211E-02	   -1.000000E+00	    1.778095E-03	    1.640000E-03	    7.900000E+02	    7.671917E-04	    6.993933E-03	    7.201860E+03	    6.524710E+05	
    2.742366E-02	    4.222231E-03	    3.961698E-02	   -1.000000E+00	    1.736709E-03	    1.640000E-03	    7.900000E+02	    5.372696E-04	    6.550189E-03	    9.631383E+03	    6.842088E+05	
    2.715901E-02	    2.984273E-03	    2.808723E-02	   -1.000000E+00	    1.705537E-03	    1.640000E-03	    7.900000E+02	    3.640948E-04	    6.023869E-03	    1.307038E+04	    7.044816E+05	
    2.692310E-02	    2.061687E-03	    1.940576E-02	   -1.000000E+00	    1.682945E-03	    1.640000E-03	    7.900000E+02	    2.385820E-04	    5.421018E-03	    1.795024E+04	    7.148456E+05	
    2.673119E-02	    1.393916E-03	    1.308409E-02	   -1.000000E+00	    1.667190E-03	    1.640000E-03	    7.900000E+02	    1.510563E-04	    4.754963E-03	    2.486768E+04	    7.173225E+05	
    2.658523E-02	    9.239073E-04	    8.615147E-03	   -1.000000E+00	    1.656621E-03	    1.640000E-03	    7.900000E+02	    9.233763E-05	    4.044902E-03	    3.460639E+04	    7.119056E+05	
    2.647990E-02	    6.017468E-04	    5.525704E-03	   -1.000000E+00	    1.649792E-03	    1.640000E-03	    7.900000E+02	    5.440168E-05	    3.310159E-03	    4.806883E+04	    6.928526E+05	
    2.640702E-02	    3.862814E-04	    3.408120E-03	   -1.000000E+00	    1.645531E-03	    1.640000E-03	    7.900000E+02	    3.072618E-05	    2.562659E-03	    6.588845E+04	    6.410211E+05	
    2.635828E-02	    2.452975E-04	    1.926864E-03	   -1.000000E+00	    1.643033E-03	    1.640000E-03	    7.900000E+02	    1.684772E-05	    1.910720E-03	    8.959480E+04	    5.087939E+05	
    2.632652E-02	    1.547437E-04	    8.381957E-04	   -1.000000E+00	    1.642598E-03	    1.640000E-03	    7.900000E+02	    1.443603E-05	    3.525189E-03	    1.929132E+05	    2.393985E+05	
    2.631523E-02	    1.227768E-04	    0.000000E+00	    0.000000E+00	    1.000000E-03	    1.000000E-03	    1.000000E+03	    0.000000E+00	    0.000000E+00	    0.000000E+00	    0.000000E+00	
   -2.631285E-02	    1.235935E-04	    0.000000E+00	    0.000000E+00	    1.000000E-03	    1.000000E-03	    1.000000E+03	    0.000000E+00	    0.000000E+00	    0.000000E+00	    0.000000E+00	
   -2.632352E-02	    1.557694E-04	    1.999978E-03	   -1.000000E+00	    1.703847E-03	    1.640000E-03	    7.900000E+02	    3.547047E-04	    3.478543E-03	    7.747427E+03	    1.332865E+05	
   -2.635351E-02	    2.469070E-04	    4.639365E-03	   -1.000000E+00	    1.643142E-03	    1.640000E-03	    7.900000E+02	    1.745422E-05	    1.550446E-03	    7.017512E+04	    2.914740E+05	
   -2.639951E-02	    3.887756E-04	    8.197922E-03	   -1.000000E+00	    1.645619E-03	    1.640000E-03	    7.900000E+02	    3.121740E-05	    1.898586E-03	    4.804638E+04	    3.661973E+05	
   -2.646816E-02	    6.055361E-04	    1.326917E-02	   -1.000000E+00	    1.650079E-03	    1.640000E-03	    7.900000E+02	    5.599556E-05	    2.269006E-03	    3.201173E+04	    3.942030E+05	
   -2.656714E-02	    9.295048E-04	    2.063145E-02	   -1.000000E+00	    1.657617E-03	    1.640000E-03	    7.900000E+02	    9.787283E-05	    2.580791E-03	    2.083136E+04	    4.022592E+05	
   -2.670376E-02	    1.401876E-03	    3.119679E-02	   -1.000000E+00	    1.670534E-03	    1.640000E-03	    7.900000E+02	    1.696346E-04	    2.885391E-03	    1.343746E+04	    4.000999E+05	
   -2.688226E-02	    2.072441E-03	    4.594781E-02	   -1.000000E+00	    1.693551E-03	    1.640000E-03	    7.900000E+02	    2.975039E-04	    3.274867E-03	    8.696171E+03	    3.882128E+05	
   -2.709943E-02	    2.997805E-03	    6.575967E-02	   -1.000000E+00	    1.736541E-03	    1.640000E-03	    7.900000E+02	    5.363407E-04	    3.880346E-03	    5.715534E+03	    3.620246E+05	
   -2.733862E-02	    4.237520E-03	    9.109281E-02	   -1.000000E+00	    1.817782E-03	    1.640000E-03	    7.900000E+02	    9.876765E-04	    4.835420E-03	    3.867645E+03	    3.184365E+05	
   -2.756305E-02	    5.847430E-03	    1.216552E-01	   -1.000000E+00	    1.962762E-03	    1.640000E-03	    7.900000E+02	    1.793125E-03	    6.191403E-03	    2.727757E+03	    2.628082E+05	
   -2.771018E-02	    7.869589E-03	    1.563354E-01	   -1.000000E+00	    2.194569E-03	    1.640000E-03	    7.900000E+02	    3.080941E-03	    7.852464E-03	    2.013491E+03	    2.057748E+05	
   -2.769030E-02	    1.031878E-02	    1.935746E-01	   -1.000000E+00	    2.523444E-03	    1.640000E-03	    7.900000E+02	    4.908025E-03	    9.620061E-03	    1.548454E+03	    1.556702E+05	
   -2.739306E-02	    1.316745E-02	    2.317859E-01	   -1.000000E+00	    2.943381E-03	    1.640000E-03	    7.900000E+02	    7.241005E-03	    1.128897E-02	    1.231637E+03	    1.159476E+05	
   -2.670459E-02	    1.633381E-02	    2.694892E-01	   -1.000000E+00	    3.433439E-03	    1.640000E-03	    7.900000E+02	    9.963548E-03	    1.271107E-02	    1.007848E+03	    8.649517E+04	
   -2.553391E-02	    1.968012E-02	    3.053017E-01	   -1.000000E+00	    3.961415E-03	    1.640000E-03	    7.900000E+02	    1.289675E-02	    1.381755E-02	    8.464045E+02	    6.557111E+04	
   -2.384120E-02	    2.302738E-02	    3.379790E-01	   -1.000000E+00	    4.489878E-03	    1.640000E-03	    7.900000E+02	    1.583266E-02	    1.461088E-02	    7.290370E+02	    5.108842E+04	
   -2.165612E-02	    2.618597E-02	    3.665395E-01	   -1.000000E+00	    4.983529E-03	    1.640000E-03	    7.900000E+02	    1.857516E-02	    1.513935E-02	    6.438750E+02	    4.121350E+04	
   -1.907605E-02	    2.899289E-02	    3.903942E-01	   -1.000000E+00	    5.415594E-03	    1.640000E-03	    7.900000E+02	    2.097552E-02	    1.546910E-02	    5.826118E+02	    3.453917E+04	
   -1.624417E-02	    3.134110E-02	    4.094039E-01	   -1.000000E+00	    5.771173E-03	    1.640000E-03	    7.900000E+02	    2.295096E-02	    1.566347E-02	    5.391558E+02	    3.005960E+04	
   -1.331695E-02	    3.319035E-02	    4.238323E-01	   -1.000000E+00	    6.046997E-03	    1.640000E-03	    7.900000E+02	    2.448331E-02	    1.577269E-02	    5.089354E+02	    2.708179E+04	
   -1.043471E-02	    3.455921E-02	    4.342274E-01	   -1.000000E+00	    6.248615E-03	    1.640000E-03	    7.900000E+02	    2.560342E-02	    1.583169E-02	    4.884909E+02	    2.513524E+04	
   -7.703866E-03	    3.550584E-02	    4.412783E-01	   -1.000000E+00	    6.386697E-03	    1.640000E-03	    7.900000E+02	    2.637054E-02	    1.586247E-02	    4.752027E+02	    2.390060E+04	
   -5.192181E-03	    3.610707E-02	    4.456952E-01	   -1.000000E+00	    6.473775E-03	    1.640000E-03	    7.900000E+02	    2.685430E-02	    1.587780E-02	    4.670932E+02	    2.315918E+04	
   -2.933166E-03	    3.644196E-02	    4.481277E-01	   -1.000000E+00	    6.522012E-03	    1.640000E-03	    7.900000E+02	    2.712229E-02	    1.588466E-02	    4.626777E+02	    2.275926E+04	
   -9.345027E-04	    3.658178E-02	    4.491251E-01	   -1.000000E+00	    6.541987E-03	    1.640000E-03	    7.900000E+02	    2.723326E-02	    1.588672E-02	    4.608522E+02	    2.259431E+04	
    9.345027E-04	    3.658178E-02	    4.491251E-01	   -1.000000E+00	    6.541987E-03	    1.640000E-03	    7.900000E+02	    2.723326E-02	    1.588672E-02	    4.608522E+02	    2.259431E+04	
    2.933166E-03	    3.644196E-02	    4.481277E-01	   -1.000000E+00	    6.522012E-03	    1.640000E-03	    7.900000E+02	    2.712229E-02	    1.588466E-02	    4.626777E+02	    2.275926E+04	
    5.192181E-03	    3.610707E-02	    4.456952E-01	   -1.000000E+00	    6.473775E-03	    1.640000E-03	    7.900000E+02	    2.685430E-02	    1.587780E-02	    4.670932E+02	    2.315918E+04	
    7.703866E-03	    3.550584E-02	    4.412783E-01	   -1.000000E+00	    6.386697E-03	    1.640000E-03	    7.900000E+02	    2.637054E-02	    1.586247E-02	    4.752027E+02	    2.390060E+04	
    1.043471E-02	    3.455921E-02	    4.342274E-01	   -1.000000E+00	    6.248615E-03	    1.640000E-03	    7.900000E+02	    2.560342E-02	    1.583169E-02	    4.884909E+02	    2.513524E+04	
    1.331695E-02	    3.319035E-02	    4.238323E-01	   -1.000000E+00	    6.046997E-03	    1.640000E-03	    7.900000E+02	    2.448331E-02	    1.577269E-02	    5.089354E+02	    2.708179E+04	
    1.624417E-02	    3.134110E-02	    4.094039E-01	   -1.000000E+00	    5.771173E-03	    1.640000E-03	    7.900000E+02	    2.295096E-02	    1.566347E-02	    5.391558E+02	    3.005960E+04	
    1.907605E-02	    2.899289E-02	    3.903942E-01	   -1.000000E+00	    5.415594E-03	    1.640000E-03	    7.900000E+02	    2.097552E-02	    1.546910E-02	    5.826118E+02	    3.453917E+04	
    2.165612E-02	    2.618597E-02	    3.665395E-01	   -1.000000E+00	    4.983529E-03	    1.640000E-03	    7.900000E+02	    1.857516E-02	    1.513935E-02	    6.438750E+02	    4.121350E+04	
    2.384120E-02	    2.302738E-02	    3.379790E-01	   -1.000000E+00	    4.489878E-03	    1.640000E-03	    7.900000E+02	    1.583266E-02	    1.461088E-02	    7.290370E+02	    5.108842E+04	
    2.553391E-02	    1.968012E-02	    3.053017E-01	   -1.000000E+00	    3.961415E-03	    1.640000E-03	    7.900000E+02	    1.289675E-02	    1.381755E-02	    8.464045E+02	    6.557111E+04	
    2.670459E-02	    1.633381E-02	    2.694892E-01	   -1.000000E+00	    3.433439E-03	    1.640000E-03	    7.900000E+02	    9.963548E-03	    1.271107E-02	    1.007848E+03	    8.649517E+04	
    2.739306E-02	    1.316745E-02	    2.317859E-01	   -1.000000E+00	    2.943381E-03	    1.640000E-03	    7.900000E+02	    7.241005E-03	    1.128897E-02	    1.231637E+03	    1.159476E+05	
    2.769030E-02	    1.031878E-02	    1.935746E-01	   -1.000000E+00	    2.523444E-03	    1.640000E-03	    7.900000E+02	    4.908025E-03	    9.620061E-03	    1.548454E+03	    1.556702E+05	
    2.771018E-02	    7.869589E-03	    1.563354E-01	   -1.000000E+00	    2.194569E-03	    1.640000E-03	    7.900000E+02	    3.080941E-03	    7.852464E-03	    2.013491E+03	    2.057748E+05	
    2.756305E-02	    5.847430E-03	    1.216552E-01	   -1.000000E+00	    1.962762E-03	    1.640000E-03	    7.900000E+02	    1.793125E-03	    6.191403E-03	    2.727757E+03	    2.628082E+05	
    2.733862E-02	    4.237520E-03	    9.109281E-02	   -1.000000E+00	    1.817782E-03	    1.640000E-03	    7.900000E+02	    9.876765E-04	    4.835420E-03	    3.867645E+03	    3.184365E+05	
    2.709943E-02	    2.997805E-03	    6.575967E-02	   -1.000000E+00	    1.736541E-03	    1.640000E-03	    7.900000E+02	    5.363407E-04	    3.880346E-03	    5.715534E+03	    3.620246E+05	
    2.688226E-02	    2.072441E-03	    4.594781E-02	   -1.000000E+00	    1.693551E-03	    1.640000E-03	    7.900000E+02	    2.975039E-04	    3.274867E-03	    8.696171E+03	    3.882128E+05	
    2.670376E-02	    1.401876E-03	    3.119679E-02	   -1.000000E+00	    1.670534E-03	    1.640000E-03	    7.900000E+02	    1.696346E-04	    2.885391E-03	    1.343746E+04	    4.000999E+05	
    2.656714E-02	    9.295048E-04	    2.063145E-02	   -1.000000E+00	    1.657617E-03	    1.640000E-03	    7.900000E+02	    9.787283E-05	    2.580791E-03	    2.083136E+04	    4.022592E+05	
    2.646816E-02	    6.055361E-04	    1.326917E-02	   -1.000000E+00	    1.650079E-03	    1.640000E-03	    7.900000E+02	    5.599556E-05	    2.269006E-03	    3.201173E+04	    3.942030E+05	
    2.639951E-02	    3.887756E-04	    8.197922E-03	   -1.000000E+00	    1.645619E-03	    1.640000E-03	    7.900000E+02	    3.121740E-05	    1.898586E-03	    4.804638E+04	    3.661973E+05	
    2.635351E-02	    2.469070E-04	    4.639365E-03	   -1.000000E+00	    1.643142E-03	    1.640000E-03	    7.900000E+02	    1.745422E-05	    1.550446E-03	    7.017512E+04	    2.914740E+05	
    2.632352E-02	    1.557694E-04	    1.999978E-03	   -1.000000E+00	    1.703847E-03	    1.640000E-03	    7.900000E+02	    3.547047E-04	    3.478543E-03	    7.747427E+03	    1.332865E+05	
    2.631285E-02	    1.235935E-04	    0.000000E+00	    0.000000E+00	    1.000000E-03	    1.000000E-03	    1.000000E+03	    0.000000E+00	    0.000000E+00	    0.000000E+00	    0.000000E+00	
   -2.630971E-02	    1.245932E-04	    0.000000E+00	    0.000000E+00	    1.000000E-03	    1.000000E-03	    1.000000E+03	    0.000000E+00	    0.000000E+00	    0.000000E+00	    0.000000E+00	
   -2.631956E-02	    1.570245E-04	    3.489223E-03	   -1.000000E+00	    1.703478E-03	    1.640000E-03	    7.900000E+02	    3.526563E-04	    3.439410E-03	    7.704764E+03	    1.343398E+05	