Title="Fields"
Variables="X""Y""Velocity""Phi""Effective Viscosity""Dynamic Viscosity""Density""Eddy Viscosity""K""Omega""S"
Zone I=82 J=82 F=POINT
   -2.612909E-02	    1.206641E-04	    0.000000E+00	   -1.000000E+00	    1.640000E-03	    1.640000E-03	    7.900000E+02	    0.000000E+00	    0.000000E+00	    0.000000E+00	    0.000000E+00	
   -2.613633E-02	    1.394634E-04	    0.000000E+00	   -1.000000E+00	    1.640000E-03	    1.640000E-03	    7.900000E+02	    0.000000E+00	    0.000000E+00	    0.000000E+00	    0.000000E+00	
   -2.615425E-02	    1.862178E-04	    0.000000E+00	   -1.000000E+00	    1.640000E-03	    1.640000E-03	    7.900000E+02	    0.000000E+00	    0.000000E+00	    0.000000E+00	    0.000000E+00	
   -2.617788E-02	    2.482538E-04	    0.000000E+00	   -1.000000E+00	    1.640000E-03	    1.640000E-03	    7.900000E+02	    0.000000E+00	    0.000000E+00	    0.000000E+00	    0.000000E+00	
   -2.620878E-02	    3.300690E-04	    0.000000E+00	   -1.000000E+00	    1.640000E-03	    1.640000E-03	    7.900000E+02	    0.000000E+00	    0.000000E+00	    0.000000E+00	    0.000000E+00	
   -2.624882E-02	    4.372141E-04	    0.000000E+00	   -1.000000E+00	    1.640000E-03	    1.640000E-03	    7.900000E+02	    0.000000E+00	    0.000000E+00	    0.000000E+00	    0.000000E+00	
   -2.630009E-02	    5.764275E-04	    0.000000E+00	   -1.000000E+00	    1.640000E-03	    1.640000E-03	    7.900000E+02	    0.000000E+00	    0.000000E+00	    0.000000E+00	    0.000000E+00	
   -2.636491E-02	    7.557485E-04	    0.000000E+00	   -1.000000E+00	    1.640000E-03	    1.640000E-03	    7.900000E+02	    0.000000E+00	    0.000000E+00	    0.000000E+00	    0.000000E+00	
   -2.644563E-02	    9.845938E-04	    0.000000E+00	   -1.000000E+00	    1.640000E-03	    1.640000E-03	    7.900000E+02	    0.000000E+00	    0.000000E+00	    0.000000E+00	    0.000000E+00	
   -2.654446E-02	    1.273784E-03	    0.000000E+00	   -1.000000E+00	    1.640000E-03	    1.640000E-03	    7.900000E+02	    0.000000E+00	    0.000000E+00	    0.000000E+00	    0.000000E+00	
   -2.666315E-02	    1.635501E-03	    0.000000E+00	   -1.000000E+00	    1.640000E-03	    1.640000E-03	    7.900000E+02	    0.000000E+00	    0.000000E+00	    0.000000E+00	    0.000000E+00	
   -2.680255E-02	    2.083166E-03	    0.000000E+00	   -1.000000E+00	    1.640000E-03	    1.640000E-03	    7.900000E+02	    0.000000E+00	    0.000000E+00	    0.000000E+00	    0.000000E+00	
   -2.696211E-02	    2.631204E-03	    0.000000E+00	   -1.000000E+00	    1.640000E-03	    1.640000E-03	    7.900000E+02	    0.000000E+00	    0.000000E+00	    0.000000E+00	    0.000000E+00	
   -2.713922E-02	    3.294682E-03	    0.000000E+00	   -1.000000E+00	    1.640000E-03	    1.640000E-03	    7.900000E+02	    0.000000E+00	    0.000000E+00	    0.000000E+00	    0.000000E+00	
   -2.732853E-02	    4.088789E-03	    0.000000E+00	   -1.000000E+00	    1.640000E-03	    1.640000E-03	    7.900000E+02	    0.000000E+00	    0.000000E+00	    0.000000E+00	    0.000000E+00	
   -2.752121E-02	    5.028112E-03	    0.000000E+00	   -1.000000E+00	    1.640000E-03	    1.640000E-03	    7.900000E+02	    0.000000E+00	    0.000000E+00	    0.000000E+00	    0.000000E+00	
   -2.770434E-02	    6.125691E-03	    0.000000E+00	   -1.000000E+00	    1.640000E-03	    1.640000E-03	    7.900000E+02	    0.000000E+00	    0.000000E+00	    0.000000E+00	    0.000000E+00	
   -2.786043E-02	    7.391818E-03	    0.000000E+00	   -1.000000E+00	    1.640000E-03	    1.640000E-03	    7.900000E+02	    0.000000E+00	    0.000000E+00	    0.000000E+00	    0.000000E+00	
   -2.796737E-02	    8.832615E-03	    0.000000E+00	   -1.000000E+00	    1.640000E-03	    1.640000E-03	    7.900000E+02	    0.000000E+00	    0.000000E+00	    0.000000E+00	    0.000000E+00	
   -2.799875E-02	    1.044845E-02	    0.000000E+00	   -1.000000E+00	    1.640000E-03	    1.640000E-03	    7.900000E+02	    0.000000E+00	    0.000000E+00	    0.000000E+00	    0.000000E+00	
   -2.792498E-02	    1.223233E-02	    0.000000E+00	   -1.000000E+00	    1.640000E-03	    1.640000E-03	    7.900000E+02	    0.000000E+00	    0.000000E+00	    0.000000E+00	    0.000000E+00	
   -2.771503E-02	    1.416860E-02	    0.000000E+00	   -1.000000E+00	    1.640000E-03	    1.640000E-03	    7.900000E+02	    0.000000E+00	    0.000000E+00	    0.000000E+00	    0.000000E+00	
   -2.733899E-02	    1.623211E-02	    0.000000E+00	   -1.000000E+00	    1.640000E-03	    1.640000E-03	    7.900000E+02	    0.000000E+00	    0.000000E+00	    0.000000E+00	    0.000000E+00	
   -2.677103E-02	    1.838837E-02	    0.000000E+00	   -1.000000E+00	    1.640000E-03	    1.640000E-03	    7.900000E+02	    0.000000E+00	    0.000000E+00	    0.000000E+00	    0.000000E+00	
   -2.599260E-02	    2.059480E-02	    0.000000E+00	   -1.000000E+00	    1.640000E-03	    1.640000E-03	    7.900000E+02	    0.000000E+00	    0.000000E+00	    0.000000E+00	    0.000000E+00	
   -2.499512E-02	    2.280318E-02	    0.000000E+00	   -1.000000E+00	    1.640000E-03	    1.640000E-03	    7.900000E+02	    0.000000E+00	    0.000000E+00	    0.000000E+00	    0.000000E+00	
   -2.378180E-02	    2.496323E-02	    0.000000E+00	   -1.000000E+00	    1.640000E-03	    1.640000E-03	    7.900000E+02	    0.000000E+00	    0.000000E+00	    0.000000E+00	    0.000000E+00	
   -2.236802E-02	    2.702655E-02	    0.000000E+00	   -1.000000E+00	    1.640000E-03	    1.640000E-03	    7.900000E+02	    0.000000E+00	    0.000000E+00	    0.000000E+00	    0.000000E+00	
   -2.078015E-02	    2.895059E-02	    0.000000E+00	   -1.000000E+00	    1.640000E-03	    1.640000E-03	    7.900000E+02	    0.000000E+00	    0.000000E+00	    0.000000E+00	    0.000000E+00	
   -1.905311E-02	    3.070176E-02	    0.000000E+00	   -1.000000E+00	    1.640000E-03	    1.640000E-03	    7.900000E+02	    0.000000E+00	    0.000000E+00	    0.000000E+00	    0.000000E+00	
   -1.722693E-02	    3.225734E-02	    0.000000E+00	   -1.000000E+00	    1.640000E-03	    1.640000E-03	    7.900000E+02	    0.000000E+00	    0.000000E+00	    0.000000E+00	    0.000000E+00	
   -1.534319E-02	    3.360591E-02	    0.000000E+00	   -1.000000E+00	    1.640000E-03	    1.640000E-03	    7.900000E+02	    0.000000E+00	    0.000000E+00	    0.000000E+00	    0.000000E+00	
   -1.344176E-02	    3.474655E-02	    0.000000E+00	   -1.000000E+00	    1.640000E-03	    1.640000E-03	    7.900000E+02	    0.000000E+00	    0.000000E+00	    0.000000E+00	    0.000000E+00	
   -1.155822E-02	    3.568708E-02	    0.000000E+00	   -1.000000E+00	    1.640000E-03	    1.640000E-03	    7.900000E+02	    0.000000E+00	    0.000000E+00	    0.000000E+00	    0.000000E+00	
   -9.722392E-03	    3.644185E-02	    0.000000E+00	   -1.000000E+00	    1.640000E-03	    1.640000E-03	    7.900000E+02	    0.000000E+00	    0.000000E+00	    0.000000E+00	    0.000000E+00	
   -7.957564E-03	    3.702942E-02	    0.000000E+00	   -1.000000E+00	    1.640000E-03	    1.640000E-03	    7.900000E+02	    0.000000E+00	    0.000000E+00	    0.000000E+00	    0.000000E+00	
   -6.280631E-03	    3.747050E-02	    0.000000E+00	   -1.000000E+00	    1.640000E-03	    1.640000E-03	    7.900000E+02	    0.000000E+00	    0.000000E+00	    0.000000E+00	    0.000000E+00	
   -4.702634E-03	    3.778626E-02	    0.000000E+00	   -1.000000E+00	    1.640000E-03	    1.640000E-03	    7.900000E+02	    0.000000E+00	    0.000000E+00	    0.000000E+00	    0.000000E+00	
   -3.229637E-03	    3.799710E-02	    0.000000E+00	   -1.000000E+00	    1.640000E-03	    1.640000E-03	    7.900000E+02	    0.000000E+00	    0.000000E+00	    0.000000E+00	    0.000000E+00	
   -1.863682E-03	    3.812190E-02	    0.000000E+00	   -1.000000E+00	    1.640000E-03	    1.640000E-03	    7.900000E+02	    0.000000E+00	    0.000000E+00	    0.000000E+00	    0.000000E+00	
   -6.037412E-04	    3.817748E-02	    0.000000E+00	   -1.000000E+00	    1.640000E-03	    1.640000E-03	    7.900000E+02	    0.000000E+00	    0.000000E+00	    0.000000E+00	    0.000000E+00	
    6.037412E-04	    3.817748E-02	    0.000000E+00	   -1.000000E+00	    1.640000E-03	    1.640000E-03	    7.900000E+02	    0.000000E+00	    0.000000E+00	    0.000000E+00	    0.000000E+00	
    1.863682E-03	    3.812190E-02	    0.000000E+00	   -1.000000E+00	    1.640000E-03	    1.640000E-03	    7.900000E+02	    0.000000E+00	    0.000000E+00	    0.000000E+00	    0.000000E+00	
    3.229637E-03	    3.799710E-02	    0.000000E+00	   -1.000000E+00	    1.640000E-03	    1.640000E-03	    7.900000E+02	    0.000000E+00	    0.000000E+00	    0.000000E+00	    0.000000E+00	
    4.702634E-03	    3.778626E-02	    0.000000E+00	   -1.000000E+00	    1.640000E-03	    1.640000E-03	    7.900000E+02	    0.000000E+00	    0.000000E+00	    0.000000E+00	    0.000000E+00	
    6.280631E-03	    3.747050E-02	    0.000000E+00	   -1.000000E+00	    1.640000E-03	    1.640000E-03	    7.900000E+02	    0.000000E+00	    0.000000E+00	    0.000000E+00	    0.000000E+00	
    7.957564E-03	    3.702942E-02	    0.000000E+00	   -1.000000E+00	    1.640000E-03	    1.640000E-03	    7.900000E+02	    0.000000E+00	    0.000000E+00	    0.000000E+00	    0.000000E+00	
    9.722392E-03	    3.644185E-02	    0.000000E+00	   -1.000000E+00	    1.640000E-03	    1.640000E-03	    7.900000E+02	    0.000000E+00	    0.000000E+00	    0.000000E+00	    0.000000E+00	
    1.155822E-02	    3.568708E-02	    0.000000E+00	   -1.000000E+00	    1.640000E-03	    1.640000E-03	    7.900000E+02	    0.000000E+00	    0.000000E+00	    0.000000E+00	    0.000000E+00	
    1.344176E-02	    3.474655E-02	    0.000000E+00	   -1.000000E+00	    1.640000E-03	    1.640000E-03	    7.900000E+02	    0.000000E+00	    0.000000E+00	    0.000000E+00	    0.000000E+00	
    1.534319E-02	    3.360591E-02	    0.000000E+00	   -1.000000E+00	    1.640000E-03	    1.640000E-03	    7.900000E+02	    0.000000E+00	    0.000000E+00	    0.000000E+00	    0.000000E+00	
    1.722693E-02	    3.225734E-02	    0.000000E+00	   -1.000000E+00	    1.640000E-03	    1.640000E-03	    7.900000E+02	    0.000000E+00	    0.000000E+00	    0.000000E+00	    0.000000E+00	
    1.905311E-02	    3.070176E-02	    0.000000E+00	   -1.000000E+00	    1.640000E-03	    1.640000E-03	    7.900000E+02	    0.000000E+00	    0.000000E+00	    0.000000E+00	    0.000000E+00	
    2.078015E-02	    2.895059E-02	    0.000000E+00	   -1.000000E+00	    1.640000E-03	    1.640000E-03	    7.900000E+02	    0.000000E+00	    0.000000E+00	    0.000000E+00	    0.000000E+00	
    2.236802E-02	    2.702655E-02	    0.000000E+00	   -1.000000E+00	    1.640000E-03	    1.640000E-03	    7.900000E+02	    0.000000E+00	    0.000000E+00	    0.000000E+00	    0.000000E+00	
    2.378180E-02	    2.496323E-02	    0.000000E+00	   -1.000000E+00	    1.640000E-03	    1.640000E-03	    7.900000E+02	    0.000000E+00	    0.000000E+00	    0.000000E+00	    0.000000E+00	
    2.499512E-02	    2.280318E-02	    0.000000E+00	   -1.000000E+00	    1.640000E-03	    1.640000E-03	    7.900000E+02	    0.000000E+00	    0.000000E+00	    0.000000E+00	    0.000000E+00	
    2.599260E-02	    2.059480E-02	    0.000000E+00	   -1.000000E+00	    1.640000E-03	    1.640000E-03	    7.900000E+02	    0.000000E+00	    0.000000E+00	    0.000000E+00	    0.000000E+00	
    2.677103E-02	    1.838837E-02	    0.000000E+00	   -1.000000E+00	    1.640000E-03	    1.640000E-03	    7.900000E+02	    0.000000E+00	    0.000000E+00	    0.000000E+00	    0.000000E+00	
    2.733899E-02	    1.623211E-02	    0.000000E+00	   -1.000000E+00	    1.640000E-03	    1.640000E-03	    7.900000E+02	    0.000000E+00	    0.000000E+00	    0.000000E+00	    0.000000E+00	
    2.771503E-02	    1.416860E-02	    0.000000E+00	   -1.000000E+00	    1.640000E-03	    1.640000E-03	    7.900000E+02	    0.000000E+00	    0.000000E+00	    0.000000E+00	    0.000000E+00	
    2.792498E-02	    1.223233E-02	    0.000000E+00	   -1.000000E+00	    1.640000E-03	    1.640000E-03	    7.900000E+02	    0.000000E+00	    0.000000E+00	    0.000000E+00	    0.000000E+00	
    2.799875E-02	    1.044845E-02	    0.000000E+00	   -1.000000E+00	    1.640000E-03	    1.640000E-03	    7.900000E+02	    0.000000E+00	    0.000000E+00	    0.000000E+00	    0.000000E+00	
    2.796737E-02	    8.832615E-03	    0.000000E+00	   -1.000000E+00	    1.640000E-03	    1.640000E-03	    7.900000E+02	    0.000000E+00	    0.000000E+00	    0.000000E+00	    0.000000E+00	
    2.786043E-02	    7.391818E-03	    0.000000E+00	   -1.000000E+00	    1.640000E-03	    1.640000E-03	    7.900000E+02	    0.000000E+00	    0.000000E+00	    0.000000E+00	    0.000000E+00	
    2.770434E-02	    6.125691E-03	    0.000000E+00	   -1.000000E+00	    1.640000E-03	    1.640000E-03	    7.900000E+02	    0.000000E+00	    0.000000E+00	    0.000000E+00	    0.000000E+00	
    2.752121E-02	    5.028112E-03	    0.000000E+00	   -1.000000E+00	    1.640000E-03	    1.640000E-03	    7.900000E+02	    0.000000E+00	    0.000000E+00	    0.000000E+00	    0.000000E+00	
    2.732853E-02	    4.088789E-03	    0.000000E+00	   -1.000000E+00	    1.640000E-03	    1.640000E-03	    7.900000E+02	    0.000000E+00	    0.000000E+00	    0.000000E+00	    0.000000E+00	
    2.713922E-02	    3.294682E-03	    0.000000E+00	   -1.000000E+00	    1.640000E-03	    1.640000E-03	    7.900000E+02	    0.000000E+00	    0.000000E+00	    0.000000E+00	    0.000000E+00	
    2.696211E-02	    2.631204E-03	    0.000000E+00	   -1.000000E+00	    1.640000E-03	    1.640000E-03	    7.900000E+02	    0.000000E+00	    0.000000E+00	    0.000000E+00	    0.000000E+00	
    2.680255E-02	    2.083166E-03	    0.000000E+00	   -1.000000E+00	    1.640000E-03	    1.640000E-03	    7.900000E+02	    0.000000E+00	    0.000000E+00	    0.000000E+00	    0.000000E+00	
    2.666315E-02	    1.635501E-03	    0.000000E+00	   -1.000000E+00	    1.640000E-03	    1.640000E-03	    7.900000E+02	    0.000000E+00	    0.000000E+00	    0.000000E+00	    0.000000E+00	
    2.654446E-02	    1.273784E-03	    0.000000E+00	   -1.000000E+00	    1.640000E-03	    1.640000E-03	    7.900000E+02	    0.000000E+00	    0.000000E+00	    0.000000E+00	    0.000000E+00	
    2.644563E-02	    9.845938E-04	    0.000000E+00	   -1.000000E+00	    1.640000E-03	    1.640000E-03	    7.900000E+02	    0.000000E+00	    0.000000E+00	    0.000000E+00	    0.000000E+00	
    2.636491E-02	    7.557485E-04	    0.000000E+00	   -1.000000E+00	    1.640000E-03	    1.640000E-03	    7.900000E+02	    0.000000E+00	    0.000000E+00	    0.000000E+00	    0.000000E+00	
    2.630009E-02	    5.764275E-04	    0.000000E+00	   -1.000000E+00	    1.640000E-03	    1.640000E-03	    7.900000E+02	    0.000000E+00	    0.000000E+00	    0.000000E+00	    0.000000E+00	
    2.624882E-02	    4.372141E-04	    0.000000E+00	   -1.000000E+00	    1.640000E-03	    1.640000E-03	    7.900000E+02	    0.000000E+00	    0.000000E+00	    0.000000E+00	    0.000000E+00	
    2.620878E-02	    3.300690E-04	    0.000000E+00	   -1.000000E+00	    1.640000E-03	    1.640000E-03	    7.900000E+02	    0.000000E+00	    0.000000E+00	    0.000000E+00	    0.000000E+00	
    2.617788E-02	    2.482538E-04	    0.000000E+00	   -1.000000E+00	    1.640000E-03	    1.640000E-03	    7.900000E+02	    0.000000E+00	    0.000000E+00	    0.000000E+00	    0.000000E+00	
    2.615425E-02	    1.862178E-04	    0.000000E+00	   -1.000000E+00	    1.640000E-03	    1.640000E-03	    7.900000E+02	    0.000000E+00	    0.000000E+00	    0.000000E+00	    0.000000E+00	
    2.613633E-02	    1.394634E-04	    0.000000E+00	   -1.000000E+00	    1.640000E-03	    1.640000E-03	    7.900000E+02	    0.000000E+00	    0.000000E+00	    0.000000E+00	    0.000000E+00	
    2.612909E-02	    1.206641E-04	    0.000000E+00	   -1.000000E+00	    1.640000E-03	    1.640000E-03	    7.900000E+02	    0.000000E+00	    0.000000E+00	    0.000000E+00	    0.000000E+00	
   -2.612849E-02	    1.208947E-04	    0.000000E+00	   -1.000000E+00	    1.640000E-03	    1.640000E-03	    7.900000E+02	    0.000000E+00	    0.000000E+00	    0.000000E+00	    0.000000E+00	
   -2.613563E-02	    1.397295E-04	    1.286885E-04	   -1.000000E+00	    1.640725E-03	    1.640000E-03	    7.900000E+02	    4.830383E-06	    1.330388E-03	    2.175825E+05	    2.957545E+04	
   -2.615331E-02	    1.865713E-04	    3.870546E-04	   -1.000000E+00	    1.640661E-03	    1.640000E-03	    7.900000E+02	    4.409447E-06	    6.218217E-04	    1.114061E+05	    1.507167E+05	
   -2.617663E-02	    2.487222E-04	    6.745839E-04	   -1.000000E+00	    1.640952E-03	    1.640000E-03	    7.900000E+02	    6.349340E-06	    7.254548E-04	    9.026280E+04	    2.575351E+05	
   -2.620713E-02	    3.306866E-04	    1.010523E-03	   -1.000000E+00	    1.641453E-03	    1.640000E-03	    7.900000E+02	    9.684486E-06	    9.547626E-04	    7.788358E+04	    3.268060E+05	
   -2.624662E-02	    4.380232E-04	    1.418786E-03	   -1.000000E+00	    1.642158E-03	    1.640000E-03	    7.900000E+02	    1.438462E-05	    1.200520E-03	    6.593226E+04	    3.669829E+05	
   -2.629719E-02	    5.774789E-04	    1.926939E-03	   -1.000000E+00	    1.643130E-03	    1.640000E-03	    7.900000E+02	    2.086985E-05	    1.453856E-03	    5.503377E+04	    3.891888E+05	
   -2.636109E-02	    7.571010E-04	    2.567041E-03	   -1.000000E+00	    1.644463E-03	    1.640000E-03	    7.900000E+02	    2.975224E-05	    1.718985E-03	    4.564355E+04	    4.014494E+05	
   -2.644064E-02	    9.863126E-04	    3.375988E-03	   -1.000000E+00	    1.646270E-03	    1.640000E-03	    7.900000E+02	    4.180185E-05	    1.999324E-03	    3.778458E+04	    4.085699E+05	
   -2.653799E-02	    1.275937E-03	    4.395437E-03	   -1.000000E+00	    1.648692E-03	    1.640000E-03	    7.900000E+02	    5.794821E-05	    2.295720E-03	    3.129723E+04	    4.130975E+05	
   -2.665480E-02	    1.638152E-03	    5.671506E-03	   -1.000000E+00	    1.651892E-03	    1.640000E-03	    7.900000E+02	    7.928124E-05	    2.606750E-03	    2.597503E+04	    4.162252E+05	
   -2.679187E-02	    2.086364E-03	    7.254179E-03	   -1.000000E+00	    1.656057E-03	    1.640000E-03	    7.900000E+02	    1.070453E-04	    2.929441E-03	    2.161943E+04	    4.184000E+05	
   -2.694854E-02	    2.634967E-03	    9.196282E-03	   -1.000000E+00	    1.661393E-03	    1.640000E-03	    7.900000E+02	    1.426230E-04	    3.259965E-03	    1.805721E+04	    4.196700E+05	
   -2.712212E-02	    3.298975E-03	    1.155189E-02	   -1.000000E+00	    1.668126E-03	    1.640000E-03	    7.900000E+02	    1.875052E-04	    3.594165E-03	    1.514299E+04	    4.198623E+05	
   -2.730717E-02	    4.093495E-03	    1.437412E-02	   -1.000000E+00	    1.676487E-03	    1.640000E-03	    7.900000E+02	    2.432444E-04	    3.927900E-03	    1.275688E+04	    4.186743E+05	
   -2.749476E-02	    5.032996E-03	    1.771227E-02	   -1.000000E+00	    1.686708E-03	    1.640000E-03	    7.900000E+02	    3.113860E-04	    4.257260E-03	    1.080086E+04	    4.157366E+05	
   -2.767190E-02	    6.130355E-03	    2.160837E-02	   -1.000000E+00	    1.699007E-03	    1.640000E-03	    7.900000E+02	    3.933790E-04	    4.578733E-03	    9.195202E+03	    4.106887E+05	
   -2.782108E-02	    7.395656E-03	    2.609301E-02	   -1.000000E+00	    1.713570E-03	    1.640000E-03	    7.900000E+02	    4.904644E-04	    4.889345E-03	    7.875358E+03	    4.032860E+05	
   -2.792018E-02	    8.834769E-03	    3.118064E-02	   -1.000000E+00	    1.730532E-03	    1.640000E-03	    7.900000E+02	    6.035440E-04	    5.186771E-03	    6.789147E+03	    3.935090E+05	
   -2.794288E-02	    1.044777E-02	    3.686471E-02	   -1.000000E+00	    1.749954E-03	    1.640000E-03	    7.900000E+02	    7.330295E-04	    5.469296E-03	    5.894365E+03	    3.816235E+05	
   -2.785977E-02	    1.222737E-02	    4.311332E-02	   -1.000000E+00	    1.771801E-03	    1.640000E-03	    7.900000E+02	    8.786723E-04	    5.735552E-03	    5.156742E+03	    3.681479E+05	
   -2.764009E-02	    1.415762E-02	    4.986544E-02	   -1.000000E+00	    1.795909E-03	    1.640000E-03	    7.900000E+02	    1.039392E-03	    5.984191E-03	    4.548341E+03	    3.537437E+05	
   -2.725433E-02	    1.621315E-02	    5.702858E-02	   -1.000000E+00	    1.821973E-03	    1.640000E-03	    7.900000E+02	    1.213153E-03	    6.213726E-03	    4.046353E+03	    3.390856E+05	
   -2.667716E-02	    1.835934E-02	    6.447917E-02	   -1.000000E+00	    1.849540E-03	    1.640000E-03	    7.900000E+02	    1.396933E-03	    6.422651E-03	    3.632167E+03	    3.247631E+05	
   -2.589057E-02	    2.055364E-02	    7.206692E-02	   -1.000000E+00	    1.878026E-03	    1.640000E-03	    7.900000E+02	    1.586838E-03	    6.609717E-03	    3.290617E+03	    3.112294E+05	
   -2.488653E-02	    2.274803E-02	    7.962391E-02	   -1.000000E+00	    1.906753E-03	    1.640000E-03	    7.900000E+02	    1.778354E-03	    6.774241E-03	    3.009328E+03	    2.987916E+05	
   -2.366874E-02	    2.489261E-02	    8.697736E-02	   -1.000000E+00	    1.935007E-03	    1.640000E-03	    7.900000E+02	    1.966711E-03	    6.916294E-03	    2.778178E+03	    2.876258E+05	
   -2.225294E-02	    2.693951E-02	    9.396418E-02	   -1.000000E+00	    1.962096E-03	    1.640000E-03	    7.900000E+02	    2.147307E-03	    7.036742E-03	    2.588837E+03	    2.778021E+05	
   -2.066567E-02	    2.884679E-02	    1.004444E-01	   -1.000000E+00	    1.987415E-03	    1.640000E-03	    7.900000E+02	    2.316099E-03	    7.137123E-03	    2.434407E+03	    2.693131E+05	
   -1.894183E-02	    3.058149E-02	    1.063115E-01	   -1.000000E+00	    2.010486E-03	    1.640000E-03	    7.900000E+02	    2.469910E-03	    7.219447E-03	    2.309138E+03	    2.620976E+05	
   -1.712125E-02	    3.212147E-02	    1.114972E-01	   -1.000000E+00	    2.030989E-03	    1.640000E-03	    7.900000E+02	    2.606596E-03	    7.285966E-03	    2.208211E+03	    2.560602E+05	
   -1.524516E-02	    3.345578E-02	    1.159721E-01	   -1.000000E+00	    2.048762E-03	    1.640000E-03	    7.900000E+02	    2.725078E-03	    7.338965E-03	    2.127566E+03	    2.510872E+05	
   -1.335297E-02	    3.458382E-02	    1.197415E-01	   -1.000000E+00	    2.063787E-03	    1.640000E-03	    7.900000E+02	    2.825249E-03	    7.380614E-03	    2.063778E+03	    2.470567E+05	
   -1.147983E-02	    3.551359E-02	    1.228384E-01	   -1.000000E+00	    2.076170E-03	    1.640000E-03	    7.900000E+02	    2.907798E-03	    7.412871E-03	    2.013953E+03	    2.438471E+05	
   -9.655065E-03	    3.625950E-02	    1.253162E-01	   -1.000000E+00	    2.086100E-03	    1.640000E-03	    7.900000E+02	    2.974000E-03	    7.437443E-03	    1.975649E+03	    2.413416E+05	
   -7.901577E-03	    3.684001E-02	    1.272401E-01	   -1.000000E+00	    2.093826E-03	    1.640000E-03	    7.900000E+02	    3.025505E-03	    7.455776E-03	    1.946803E+03	    2.394322E+05	
   -6.235919E-03	    3.727571E-02	    1.286813E-01	   -1.000000E+00	    2.099622E-03	    1.640000E-03	    7.900000E+02	    3.064146E-03	    7.469078E-03	    1.925683E+03	    2.380210E+05	
   -4.668876E-03	    3.758758E-02	    1.297111E-01	   -1.000000E+00	    2.103769E-03	    1.640000E-03	    7.900000E+02	    3.091790E-03	    7.478345E-03	    1.910832E+03	    2.370212E+05	
   -3.206324E-03	    3.779580E-02	    1.303974E-01	   -1.000000E+00	    2.106535E-03	    1.640000E-03	    7.900000E+02	    3.110236E-03	    7.484390E-03	    1.901035E+03	    2.363572E+05	
   -1.850186E-03	    3.791903E-02	    1.308026E-01	   -1.000000E+00	    2.108171E-03	    1.640000E-03	    7.900000E+02	    3.121141E-03	    7.487876E-03	    1.895276E+03	    2.359635E+05	
   -5.993627E-04	    3.797392E-02	    1.309816E-01	   -1.000000E+00	    2.108897E-03	    1.640000E-03	    7.900000E+02	    3.125980E-03	    7.489338E-03	    1.892711E+03	    2.357844E+05	
    5.993627E-04	    3.797392E-02	    1.309816E-01	   -1.000000E+00	    2.108897E-03	    1.640000E-03	    7.900000E+02	    3.125980E-03	    7.489338E-03	    1.892711E+03	    2.357844E+05	
    1.850186E-03	    3.791903E-02	    1.308026E-01	   -1.000000E+00	    2.108171E-03	    1.640000E-03	    7.900000E+02	    3.121141E-03	    7.487876E-03	    1.895276E+03	    2.359635E+05	
    3.206324E-03	    3.779580E-02	    1.303974E-01	   -1.000000E+00	    2.106535E-03	    1.640000E-03	    7.900000E+02	    3.110236E-03	    7.484390E-03	    1.901035E+03	    2.363572E+05	
    4.668876E-03	    3.758758E-02	    1.297111E-01	   -1.000000E+00	    2.103769E-03	    1.640000E-03	    7.900000E+02	    3.091790E-03	    7.478345E-03	    1.910832E+03	    2.370213E+05	
    6.235919E-03	    3.727571E-02	    1.286813E-01	   -1.000000E+00	    2.099622E-03	    1.640000E-03	    7.900000E+02	    3.064146E-03	    7.469079E-03	    1.925683E+03	    2.380210E+05	
    7.901577E-03	    3.684001E-02	    1.272401E-01	   -1.000000E+00	    2.093826E-03	    1.640000E-03	    7.900000E+02	    3.025505E-03	    7.455776E-03	    1.946803E+03	    2.394322E+05	
    9.655065E-03	    3.625950E-02	    1.253162E-01	   -1.000000E+00	    2.086100E-03	    1.640000E-03	    7.900000E+02	    2.974001E-03	    7.437443E-03	    1.975649E+03	    2.413416E+05	
    1.147983E-02	    3.551359E-02	    1.228384E-01	   -1.000000E+00	    2.076170E-03	    1.640000E-03	    7.900000E+02	    2.907798E-03	    7.412872E-03	    2.013953E+03	    2.438471E+05	
    1.335297E-02	    3.458382E-02	    1.197415E-01	   -1.000000E+00	    2.063787E-03	    1.640000E-03	    7.900000E+02	    2.825249E-03	    7.380615E-03	    2.063778E+03	    2.470568E+05	
    1.524516E-02	    3.345578E-02	    1.159721E-01	   -1.000000E+00	    2.048762E-03	    1.640000E-03	    7.900000E+02	    2.725079E-03	    7.338967E-03	    2.127566E+03	    2.510873E+05	
    1.712125E-02	    3.212147E-02	    1.114972E-01	   -1.000000E+00	    2.030989E-03	    1.640000E-03	    7.900000E+02	    2.606596E-03	    7.285968E-03	    2.208211E+03	    2.560603E+05	
    1.894183E-02	    3.058149E-02	    1.063115E-01	   -1.000000E+00	    2.010487E-03	    1.640000E-03	    7.900000E+02	    2.469910E-03	    7.219449E-03	    2.309138E+03	    2.620976E+05	
    2.066567E-02	    2.884679E-02	    1.004445E-01	   -1.000000E+00	    1.987415E-03	    1.640000E-03	    7.900000E+02	    2.316099E-03	    7.137125E-03	    2.434407E+03	    2.693133E+05	
    2.225294E-02	    2.693951E-02	    9.396420E-02	   -1.000000E+00	    1.962096E-03	    1.640000E-03	    7.900000E+02	    2.147307E-03	    7.036744E-03	    2.588837E+03	    2.778023E+05	
    2.366874E-02	    2.489261E-02	    8.697739E-02	   -1.000000E+00	    1.935007E-03	    1.640000E-03	    7.900000E+02	    1.966711E-03	    6.916297E-03	    2.778179E+03	    2.876259E+05	
    2.488653E-02	    2.274803E-02	    7.962394E-02	   -1.000000E+00	    1.906753E-03	    1.640000E-03	    7.900000E+02	    1.778354E-03	    6.774244E-03	    3.009329E+03	    2.987918E+05	
    2.589057E-02	    2.055364E-02	    7.206695E-02	   -1.000000E+00	    1.878026E-03	    1.640000E-03	    7.900000E+02	    1.586839E-03	    6.609721E-03	    3.290618E+03	    3.112296E+05	
    2.667716E-02	    1.835934E-02	    6.447920E-02	   -1.000000E+00	    1.849540E-03	    1.640000E-03	    7.900000E+02	    1.396933E-03	    6.422655E-03	    3.632169E+03	    3.247634E+05	
    2.725433E-02	    1.621315E-02	    5.702861E-02	   -1.000000E+00	    1.821973E-03	    1.640000E-03	    7.900000E+02	    1.213153E-03	    6.213731E-03	    4.046354E+03	    3.390860E+05	
    2.764009E-02	    1.415762E-02	    4.986547E-02	   -1.000000E+00	    1.795909E-03	    1.640000E-03	    7.900000E+02	    1.039393E-03	    5.984195E-03	    4.548343E+03	    3.537442E+05	
    2.785977E-02	    1.222737E-02	    4.311336E-02	   -1.000000E+00	    1.771801E-03	    1.640000E-03	    7.900000E+02	    8.786727E-04	    5.735558E-03	    5.156745E+03	    3.681485E+05	
    2.794288E-02	    1.044777E-02	    3.686475E-02	   -1.000000E+00	    1.749954E-03	    1.640000E-03	    7.900000E+02	    7.330299E-04	    5.469301E-03	    5.894368E+03	    3.816242E+05	
    2.792018E-02	    8.834769E-03	    3.118067E-02	   -1.000000E+00	    1.730532E-03	    1.640000E-03	    7.900000E+02	    6.035444E-04	    5.186777E-03	    6.789151E+03	    3.935099E+05	
    2.782108E-02	    7.395656E-03	    2.609304E-02	   -1.000000E+00	    1.713570E-03	    1.640000E-03	    7.900000E+02	    4.904648E-04	    4.889352E-03	    7.875363E+03	    4.032870E+05	
    2.767190E-02	    6.130355E-03	    2.160840E-02	   -1.000000E+00	    1.699007E-03	    1.640000E-03	    7.900000E+02	    3.933794E-04	    4.578741E-03	    9.195210E+03	    4.106900E+05	
    2.749476E-02	    5.032996E-03	    1.771230E-02	   -1.000000E+00	    1.686708E-03	    1.640000E-03	    7.900000E+02	    3.113863E-04	    4.257269E-03	    1.080087E+04	    4.157381E+05	
    2.730717E-02	    4.093495E-03	    1.437415E-02	   -1.000000E+00	    1.676487E-03	    1.640000E-03	    7.900000E+02	    2.432447E-04	    3.927909E-03	    1.275690E+04	    4.186762E+05	
    2.712212E-02	    3.298975E-03	    1.155192E-02	   -1.000000E+00	    1.668126E-03	    1.640000E-03	    7.900000E+02	    1.875055E-04	    3.594176E-03	    1.514301E+04	    4.198646E+05	
    2.694854E-02	    2.634967E-03	    9.196313E-03	   -1.000000E+00	    1.661393E-03	    1.640000E-03	    7.900000E+02	    1.426232E-04	    3.259977E-03	    1.805724E+04	    4.196728E+05	
    2.679187E-02	    2.086364E-03	    7.254209E-03	   -1.000000E+00	    1.656057E-03	    1.640000E-03	    7.900000E+02	    1.070455E-04	    2.929453E-03	    2.161948E+04	    4.184035E+05	
    2.665480E-02	    1.638152E-03	    5.671535E-03	   -1.000000E+00	    1.651892E-03	    1.640000E-03	    7.900000E+02	    7.928143E-05	    2.606763E-03	    2.597509E+04	    4.162295E+05	
    2.653799E-02	    1.275937E-03	    4.395467E-03	   -1.000000E+00	    1.648692E-03	    1.640000E-03	    7.900000E+02	    5.794838E-05	    2.295733E-03	    3.129733E+04	    4.131031E+05	
    2.644064E-02	    9.863126E-04	    3.376017E-03	   -1.000000E+00	    1.646270E-03	    1.640000E-03	    7.900000E+02	    4.180200E-05	    1.999338E-03	    3.778472E+04	    4.085770E+05	
    2.636109E-02	    7.571010E-04	    2.567071E-03	   -1.000000E+00	    1.644463E-03	    1.640000E-03	    7.900000E+02	    2.975238E-05	    1.719000E-03	    4.564375E+04	    4.014587E+05	
    2.629719E-02	    5.774789E-04	    1.926969E-03	   -1.000000E+00	    1.643130E-03	    1.640000E-03	    7.900000E+02	    2.086997E-05	    1.453873E-03	    5.503409E+04	    3.892013E+05	