Title="Fields"
Variables="X""Y""Velocity""Phi""Effective Viscosity""Dynamic Viscosity""Density"
Zone I=52 J=52 F=POINT
   -1.101688E-02	    4.941908E-05	    0.000000E+00	    0.000000E+00	    1.000000E-03	    1.000000E-03	    1.000000E+03	
   -1.102286E-02	    6.229320E-05	    0.000000E+00	    0.000000E+00	    1.000000E-03	    1.000000E-03	    1.000000E+03	
   -1.103970E-02	    9.877802E-05	    0.000000E+00	    0.000000E+00	    1.000000E-03	    1.000000E-03	    1.000000E+03	
   -1.106566E-02	    1.556282E-04	    0.000000E+00	    0.000000E+00	    1.000000E-03	    1.000000E-03	    1.000000E+03	
   -1.110469E-02	    2.426223E-04	    0.000000E+00	    0.000000E+00	    1.000000E-03	    1.000000E-03	    1.000000E+03	
   -1.116164E-02	    3.729434E-04	    0.000000E+00	    0.000000E+00	    1.000000E-03	    1.000000E-03	    1.000000E+03	
   -1.124172E-02	    5.636091E-04	    0.000000E+00	    0.000000E+00	    1.000000E-03	    1.000000E-03	    1.000000E+03	
   -1.134944E-02	    8.356005E-04	    0.000000E+00	    0.000000E+00	    1.000000E-03	    1.000000E-03	    1.000000E+03	
   -1.148674E-02	    1.213524E-03	    0.000000E+00	    0.000000E+00	    1.000000E-03	    1.000000E-03	    1.000000E+03	
   -1.165037E-02	    1.724578E-03	    0.000000E+00	    0.000000E+00	    1.000000E-03	    1.000000E-03	    1.000000E+03	
   -1.182851E-02	    2.396491E-03	    0.000000E+00	    0.000000E+00	    1.000000E-03	    1.000000E-03	    1.000000E+03	
   -1.199749E-02	    3.253953E-03	    0.000000E+00	    0.000000E+00	    1.000000E-03	    1.000000E-03	    1.000000E+03	
   -1.211954E-02	    4.313151E-03	    0.000000E+00	    0.000000E+00	    1.000000E-03	    1.000000E-03	    1.000000E+03	
   -1.214336E-02	    5.574528E-03	    0.000000E+00	    0.000000E+00	    1.000000E-03	    1.000000E-03	    1.000000E+03	
   -1.200954E-02	    7.015131E-03	    0.000000E+00	    0.000000E+00	    1.000000E-03	    1.000000E-03	    1.000000E+03	
   -1.166147E-02	    8.583646E-03	    0.000000E+00	    0.000000E+00	    1.000000E-03	    1.000000E-03	    1.000000E+03	
   -1.106029E-02	    1.020213E-02	    0.000000E+00	    0.000000E+00	    1.000000E-03	    1.000000E-03	    1.000000E+03	
   -1.019852E-02	    1.177696E-02	    0.000000E+00	    0.000000E+00	    1.000000E-03	    1.000000E-03	    1.000000E+03	
   -9.105856E-03	    1.321697E-02	    0.000000E+00	    0.000000E+00	    1.000000E-03	    1.000000E-03	    1.000000E+03	
   -7.843449E-03	    1.445213E-02	    0.000000E+00	    0.000000E+00	    1.000000E-03	    1.000000E-03	    1.000000E+03	
   -6.488955E-03	    1.544507E-02	    0.000000E+00	    0.000000E+00	    1.000000E-03	    1.000000E-03	    1.000000E+03	
   -5.119239E-03	    1.619186E-02	    0.000000E+00	    0.000000E+00	    1.000000E-03	    1.000000E-03	    1.000000E+03	
   -3.797422E-03	    1.671429E-02	    0.000000E+00	    0.000000E+00	    1.000000E-03	    1.000000E-03	    1.000000E+03	
   -2.567086E-03	    1.704869E-02	    0.000000E+00	    0.000000E+00	    1.000000E-03	    1.000000E-03	    1.000000E+03	
   -1.452643E-03	    1.723582E-02	    0.000000E+00	    0.000000E+00	    1.000000E-03	    1.000000E-03	    1.000000E+03	
   -4.631361E-04	    1.731414E-02	    0.000000E+00	    0.000000E+00	    1.000000E-03	    1.000000E-03	    1.000000E+03	
    4.631361E-04	    1.731414E-02	    0.000000E+00	    0.000000E+00	    1.000000E-03	    1.000000E-03	    1.000000E+03	
    1.452643E-03	    1.723582E-02	    0.000000E+00	    0.000000E+00	    1.000000E-03	    1.000000E-03	    1.000000E+03	
    2.567086E-03	    1.704869E-02	    0.000000E+00	    0.000000E+00	    1.000000E-03	    1.000000E-03	    1.000000E+03	
    3.797422E-03	    1.671429E-02	    0.000000E+00	    0.000000E+00	    1.000000E-03	    1.000000E-03	    1.000000E+03	
    5.119239E-03	    1.619186E-02	    0.000000E+00	    0.000000E+00	    1.000000E-03	    1.000000E-03	    1.000000E+03	
    6.488955E-03	    1.544507E-02	    0.000000E+00	    0.000000E+00	    1.000000E-03	    1.000000E-03	    1.000000E+03	
    7.843449E-03	    1.445213E-02	    0.000000E+00	    0.000000E+00	    1.000000E-03	    1.000000E-03	    1.000000E+03	
    9.105856E-03	    1.321697E-02	    0.000000E+00	    0.000000E+00	    1.000000E-03	    1.000000E-03	    1.000000E+03	
    1.019852E-02	    1.177696E-02	    0.000000E+00	    0.000000E+00	    1.000000E-03	    1.000000E-03	    1.000000E+03	
    1.106029E-02	    1.020213E-02	    0.000000E+00	    0.000000E+00	    1.000000E-03	    1.000000E-03	    1.000000E+03	
    1.166147E-02	    8.583646E-03	    0.000000E+00	    0.000000E+00	    1.000000E-03	    1.000000E-03	    1.000000E+03	
    1.200954E-02	    7.015131E-03	    0.000000E+00	    0.000000E+00	    1.000000E-03	    1.000000E-03	    1.000000E+03	
    1.214336E-02	    5.574528E-03	    0.000000E+00	    0.000000E+00	    1.000000E-03	    1.000000E-03	    1.000000E+03	
    1.211954E-02	    4.313151E-03	    0.000000E+00	    0.000000E+00	    1.000000E-03	    1.000000E-03	    1.000000E+03	
    1.199749E-02	    3.253953E-03	    0.000000E+00	    0.000000E+00	    1.000000E-03	    1.000000E-03	    1.000000E+03	
    1.182851E-02	    2.396491E-03	    0.000000E+00	    0.000000E+00	    1.000000E-03	    1.000000E-03	    1.000000E+03	
    1.165037E-02	    1.724578E-03	    0.000000E+00	    0.000000E+00	    1.000000E-03	    1.000000E-03	    1.000000E+03	
    1.148674E-02	    1.213524E-03	    0.000000E+00	    0.000000E+00	    1.000000E-03	    1.000000E-03	    1.000000E+03	
    1.134944E-02	    8.356005E-04	    0.000000E+00	    0.000000E+00	    1.000000E-03	    1.000000E-03	    1.000000E+03	
    1.124172E-02	    5.636091E-04	    0.000000E+00	    0.000000E+00	    1.000000E-03	    1.000000E-03	    1.000000E+03	
    1.116164E-02	    3.729434E-04	    0.000000E+00	    0.000000E+00	    1.000000E-03	    1.000000E-03	    1.000000E+03	
    1.110469E-02	    2.426223E-04	    0.000000E+00	    0.000000E+00	    1.000000E-03	    1.000000E-03	    1.000000E+03	
    1.106566E-02	    1.556282E-04	    0.000000E+00	    0.000000E+00	    1.000000E-03	    1.000000E-03	    1.000000E+03	
    1.103970E-02	    9.877802E-05	    0.000000E+00	    0.000000E+00	    1.000000E-03	    1.000000E-03	    1.000000E+03	
    1.102286E-02	    6.229320E-05	    0.000000E+00	    0.000000E+00	    1.000000E-03	    1.000000E-03	    1.000000E+03	
    1.101688E-02	    4.941908E-05	    0.000000E+00	    0.000000E+00	    1.000000E-03	    1.000000E-03	    1.000000E+03	
   -1.101645E-02	    4.961780E-05	    0.000000E+00	    0.000000E+00	    1.000000E-03	    1.000000E-03	    1.000000E+03	
   -1.102232E-02	    6.254305E-05	    4.871079E-05	   -1.000000E+00	    1.000000E-03	    1.600000E-03	    8.010000E+02	
   -1.103884E-02	    9.917133E-05	    1.556535E-04	   -1.000000E+00	    1.000000E-03	    1.600000E-03	    8.010000E+02	
   -1.106429E-02	    1.562408E-04	    2.935952E-04	   -1.000000E+00	    1.000000E-03	    1.600000E-03	    8.010000E+02	
   -1.110255E-02	    2.435606E-04	    4.872121E-04	   -1.000000E+00	    1.000000E-03	    1.600000E-03	    8.010000E+02	
   -1.115834E-02	    3.743468E-04	    7.667110E-04	   -1.000000E+00	    1.000000E-03	    1.600000E-03	    8.010000E+02	
   -1.123669E-02	    5.656445E-04	    1.169332E-03	   -1.000000E+00	    1.000000E-03	    1.600000E-03	    8.010000E+02	
   -1.134191E-02	    8.384372E-04	    1.740003E-03	   -1.000000E+00	    1.000000E-03	    1.600000E-03	    8.010000E+02	
   -1.147569E-02	    1.217278E-03	    2.530843E-03	   -1.000000E+00	    1.000000E-03	    1.600000E-03	    8.010000E+02	
   -1.163444E-02	    1.729213E-03	    3.599104E-03	   -1.000000E+00	    1.000000E-03	    1.600000E-03	    8.010000E+02	
   -1.180605E-02	    2.401653E-03	    5.002880E-03	   -1.000000E+00	    1.000000E-03	    1.600000E-03	    8.010000E+02	
   -1.196658E-02	    3.258747E-03	    6.793687E-03	   -1.000000E+00	    1.000000E-03	    1.600000E-03	    8.010000E+02	
   -1.207818E-02	    4.315886E-03	    9.005095E-03	   -1.000000E+00	    1.000000E-03	    1.600000E-03	    8.010000E+02	
   -1.208986E-02	    5.572501E-03	    1.163766E-02	   -1.000000E+00	    1.000000E-03	    1.600000E-03	    8.010000E+02	
   -1.194302E-02	    7.004605E-03	    1.464304E-02	   -1.000000E+00	    1.000000E-03	    1.600000E-03	    8.010000E+02	
   -1.158254E-02	    8.560166E-03	    1.791365E-02	   -1.000000E+00	    1.000000E-03	    1.600000E-03	    8.010000E+02	
   -1.097143E-02	    1.016126E-02	    2.128638E-02	   -1.000000E+00	    1.000000E-03	    1.600000E-03	    8.010000E+02	
   -1.010405E-02	    1.171525E-02	    2.456563E-02	   -1.000000E+00	    1.000000E-03	    1.600000E-03	    8.010000E+02	
   -9.011302E-03	    1.313284E-02	    2.756138E-02	   -1.000000E+00	    1.000000E-03	    1.600000E-03	    8.010000E+02	
   -7.754479E-03	    1.434621E-02	    3.012824E-02	   -1.000000E+00	    1.000000E-03	    1.600000E-03	    8.010000E+02	
   -6.410353E-03	    1.531993E-02	    3.218924E-02	   -1.000000E+00	    1.000000E-03	    1.600000E-03	    8.010000E+02	
   -5.054269E-03	    1.605127E-02	    3.373723E-02	   -1.000000E+00	    1.000000E-03	    1.600000E-03	    8.010000E+02	
   -3.747693E-03	    1.656239E-02	    3.481839E-02	   -1.000000E+00	    1.000000E-03	    1.600000E-03	    8.010000E+02	
   -2.532805E-03	    1.688932E-02	    3.550881E-02	   -1.000000E+00	    1.000000E-03	    1.600000E-03	    8.010000E+02	
   -1.433034E-03	    1.707220E-02	    3.589349E-02	   -1.000000E+00	    1.000000E-03	    1.600000E-03	    8.010000E+02	
   -4.568564E-04	    1.714873E-02	    3.605224E-02	   -1.000000E+00	    1.000000E-03	    1.600000E-03	    8.010000E+02	
    4.568564E-04	    1.714873E-02	    3.605224E-02	   -1.000000E+00	    1.000000E-03	    1.600000E-03	    8.010000E+02	
    1.433034E-03	    1.707220E-02	    3.589349E-02	   -1.000000E+00	    1.000000E-03	    1.600000E-03	    8.010000E+02	
    2.532805E-03	    1.688932E-02	    3.550881E-02	   -1.000000E+00	    1.000000E-03	    1.600000E-03	    8.010000E+02	
    3.747693E-03	    1.656239E-02	    3.481839E-02	   -1.000000E+00	    1.000000E-03	    1.600000E-03	    8.010000E+02	
    5.054269E-03	    1.605127E-02	    3.373723E-02	   -1.000000E+00	    1.000000E-03	    1.600000E-03	    8.010000E+02	
    6.410353E-03	    1.531993E-02	    3.218924E-02	   -1.000000E+00	    1.000000E-03	    1.600000E-03	    8.010000E+02	
    7.754479E-03	    1.434621E-02	    3.012824E-02	   -1.000000E+00	    1.000000E-03	    1.600000E-03	    8.010000E+02	
    9.011302E-03	    1.313284E-02	    2.756138E-02	   -1.000000E+00	    1.000000E-03	    1.600000E-03	    8.010000E+02	
    1.010405E-02	    1.171525E-02	    2.456563E-02	   -1.000000E+00	    1.000000E-03	    1.600000E-03	    8.010000E+02	
    1.097143E-02	    1.016126E-02	    2.128638E-02	   -1.000000E+00	    1.000000E-03	    1.600000E-03	    8.010000E+02	
    1.158254E-02	    8.560166E-03	    1.791365E-02	   -1.000000E+00	    1.000000E-03	    1.600000E-03	    8.010000E+02	
    1.194302E-02	    7.004605E-03	    1.464304E-02	   -1.000000E+00	    1.000000E-03	    1.600000E-03	    8.010000E+02	
    1.208986E-02	    5.572501E-03	    1.163766E-02	   -1.000000E+00	    1.000000E-03	    1.600000E-03	    8.010000E+02	
    1.207818E-02	    4.315886E-03	    9.005095E-03	   -1.000000E+00	    1.000000E-03	    1.600000E-03	    8.010000E+02	
    1.196658E-02	    3.258747E-03	    6.793687E-03	   -1.000000E+00	    1.000000E-03	    1.600000E-03	    8.010000E+02	
    1.180605E-02	    2.401653E-03	    5.002880E-03	   -1.000000E+00	    1.000000E-03	    1.600000E-03	    8.010000E+02	
    1.163444E-02	    1.729213E-03	    3.599104E-03	   -1.000000E+00	    1.000000E-03	    1.600000E-03	    8.010000E+02	
    1.147569E-02	    1.217278E-03	    2.530843E-03	   -1.000000E+00	    1.000000E-03	    1.600000E-03	    8.010000E+02	
    1.134191E-02	    8.384372E-04	    1.740003E-03	   -1.000000E+00	    1.000000E-03	    1.600000E-03	    8.010000E+02	
    1.123669E-02	    5.656445E-04	    1.169332E-03	   -1.000000E+00	    1.000000E-03	    1.600000E-03	    8.010000E+02	
    1.115834E-02	    3.743468E-04	    7.667110E-04	   -1.000000E+00	    1.000000E-03	    1.600000E-03	    8.010000E+02	
    1.110255E-02	    2.435606E-04	    4.872121E-04	   -1.000000E+00	    1.000000E-03	    1.600000E-03	    8.010000E+02	
    1.106429E-02	    1.562408E-04	    2.935952E-04	   -1.000000E+00	    1.000000E-03	    1.600000E-03	    8.010000E+02	
    1.103884E-02	    9.917133E-05	    1.556535E-04	   -1.000000E+00	    1.000000E-03	    1.600000E-03	    8.010000E+02	
    1.102232E-02	    6.254305E-05	    4.871079E-05	   -1.000000E+00	    1.000000E-03	    1.600000E-03	    8.010000E+02	
    1.101645E-02	    4.961780E-05	    0.000000E+00	    0.000000E+00	    1.000000E-03	    1.000000E-03	    1.000000E+03	
   -1.101544E-02	    5.006315E-05	    0.000000E+00	    0.000000E+00	    1.000000E-03	    1.000000E-03	    1.000000E+03	
   -1.102105E-02	    6.310291E-05	    1.613692E-04	   -1.000000E+00	    1.000000E-03	    1.600000E-03	    8.010000E+02	
   -1.103682E-02	    1.000523E-04	    5.156874E-04	   -1.000000E+00	    1.000000E-03	    1.600000E-03	    8.010000E+02	
   -1.106111E-02	    1.576123E-04	    9.726049E-04	   -1.000000E+00	    1.000000E-03	    1.600000E-03	    8.010000E+02	
   -1.109757E-02	    2.456589E-04	    1.613719E-03	   -1.000000E+00	    1.000000E-03	    1.600000E-03	    8.010000E+02	
   -1.115065E-02	    3.774811E-04	    2.538746E-03	   -1.000000E+00	    1.000000E-03	    1.600000E-03	    8.010000E+02	
   -1.122500E-02	    5.701796E-04	    3.870289E-03	   -1.000000E+00	    1.000000E-03	    1.600000E-03	    8.010000E+02	
   -1.132442E-02	    8.447354E-04	    5.755643E-03	   -1.000000E+00	    1.000000E-03	    1.600000E-03	    8.010000E+02	
   -1.145001E-02	    1.225569E-03	    8.364597E-03	   -1.000000E+00	    1.000000E-03	    1.600000E-03	    8.010000E+02	
   -1.159750E-02	    1.739353E-03	    1.188179E-02	   -1.000000E+00	    1.000000E-03	    1.600000E-03	    8.010000E+02	
   -1.175405E-02	    2.412757E-03	    1.649153E-02	   -1.000000E+00	    1.000000E-03	    1.600000E-03	    8.010000E+02	
   -1.189518E-02	    3.268676E-03	    2.235233E-02	   -1.000000E+00	    1.000000E-03	    1.600000E-03	    8.010000E+02	
   -1.198292E-02	    4.320674E-03	    2.955902E-02	   -1.000000E+00	    1.000000E-03	    1.600000E-03	    8.010000E+02	
   -1.196702E-02	    5.565901E-03	    3.809443E-02	   -1.000000E+00	    1.000000E-03	    1.600000E-03	    8.010000E+02	
   -1.179089E-02	    6.978087E-03	    4.778082E-02	   -1.000000E+00	    1.000000E-03	    1.600000E-03	    8.010000E+02	
   -1.140274E-02	    8.503704E-03	    5.825269E-02	   -1.000000E+00	    1.000000E-03	    1.600000E-03	    8.010000E+02	
   -1.076985E-02	    1.006501E-02	    6.897653E-02	   -1.000000E+00	    1.000000E-03	    1.600000E-03	    8.010000E+02	
   -9.890618E-03	    1.157177E-02	    7.933072E-02	   -1.000000E+00	    1.000000E-03	    1.600000E-03	    8.010000E+02	
   -8.798462E-03	    1.293892E-02	    8.872783E-02	   -1.000000E+00	    1.000000E-03	    1.600000E-03	    8.010000E+02	
   -7.554837E-03	    1.410361E-02	    9.673275E-02	   -1.000000E+00	    1.000000E-03	    1.600000E-03	    8.010000E+02	
   -6.234423E-03	    1.503459E-02	    1.031289E-01	   -1.000000E+00	    1.000000E-03	    1.600000E-03	    8.010000E+02	
   -4.909124E-03	    1.573170E-02	    1.079147E-01	   -1.000000E+00	    1.000000E-03	    1.600000E-03	    8.010000E+02	
   -3.636744E-03	    1.621780E-02	    1.112477E-01	   -1.000000E+00	    1.000000E-03	    1.600000E-03	    8.010000E+02	
   -2.456387E-03	    1.652827E-02	    1.133719E-01	   -1.000000E+00	    1.000000E-03	    1.600000E-03	    8.010000E+02	
   -1.389344E-03	    1.670179E-02	    1.145538E-01	   -1.000000E+00	    1.000000E-03	    1.600000E-03	    8.010000E+02	
   -4.428671E-04	    1.677436E-02	    1.150408E-01	   -1.000000E+00	    1.000000E-03	    1.600000E-03	    8.010000E+02	
    4.428671E-04	    1.677436E-02	    1.150408E-01	   -1.000000E+00	    1.000000E-03	    1.600000E-03	    8.010000E+02	
    1.389344E-03	    1.670179E-02	    1.145538E-01	   -1.000000E+00	    1.000000E-03	    1.600000E-03	    8.010000E+02	
    2.456387E-03	    1.652827E-02	    1.133719E-01	   -1.000000E+00	    1.000000E-03	    1.600000E-03	    8.010000E+02	
    3.636744E-03	    1.621780E-02	    1.112477E-01	   -1.000000E+00	    1.000000E-03	    1.600000E-03	    8.010000E+02	
    4.909124E-03	    1.573170E-02	    1.079147E-01	   -1.000000E+00	    1.000000E-03	    1.600000E-03	    8.010000E+02	
    6.234423E-03	    1.503459E-02	    1.031289E-01	   -1.000000E+00	    1.000000E-03	    1.600000E-03	    8.010000E+02	
    7.554837E-03	    1.410361E-02	    9.673275E-02	   -1.000000E+00	    1.000000E-03	    1.600000E-03	    8.010000E+02	
    8.798462E-03	    1.293892E-02	    8.872783E-02	   -1.000000E+00	    1.000000E-03	    1.600000E-03	    8.010000E+02	
    9.890618E-03	    1.157177E-02	    7.933072E-02	   -1.000000E+00	    1.000000E-03	    1.600000E-03	    8.010000E+02	
    1.076985E-02	    1.006501E-02	    6.897653E-02	   -1.000000E+00	    1.000000E-03	    1.600000E-03	    8.010000E+02	
    1.140274E-02	    8.503704E-03	    5.825269E-02	   -1.000000E+00	    1.000000E-03	    1.600000E-03	    8.010000E+02	
    1.179089E-02	    6.978087E-03	    4.778082E-02	   -1.000000E+00	    1.000000E-03	    1.600000E-03	    8.010000E+02	
    1.196702E-02	    5.565901E-03	    3.809443E-02	   -1.000000E+00	    1.000000E-03	    1.600000E-03	    8.010000E+02	
    1.198292E-02	    4.320674E-03	    2.955902E-02	   -1.000000E+00	    1.000000E-03	    1.600000E-03	    8.010000E+02	
    1.189518E-02	    3.268676E-03	    2.235233E-02	   -1.000000E+00	    1.000000E-03	    1.600000E-03	    8.010000E+02	
    1.175405E-02	    2.412757E-03	    1.649153E-02	   -1.000000E+00	    1.000000E-03	    1.600000E-03	    8.010000E+02	
    1.159750E-02	    1.739353E-03	    1.188179E-02	   -1.000000E+00	    1.000000E-03	    1.600000E-03	    8.010000E+02	
    1.145001E-02	    1.225569E-03	    8.364597E-03	   -1.000000E+00	    1.000000E-03	    1.600000E-03	    8.010000E+02	
    1.132442E-02	    8.447354E-04	    5.755643E-03	   -1.000000E+00	    1.000000E-03	    1.600000E-03	    8.010000E+02	
    1.122500E-02	    5.701796E-04	    3.870289E-03	   -1.000000E+00	    1.000000E-03	    1.600000E-03	    8.010000E+02	
    1.115065E-02	    3.774811E-04	    2.538746E-03	   -1.000000E+00	    1.000000E-03	    1.600000E-03	    8.010000E+02	
    1.109757E-02	    2.456589E-04	    1.613719E-03	   -1.000000E+00	    1.000000E-03	    1.600000E-03	    8.010000E+02	
    1.106111E-02	    1.576123E-04	    9.726049E-04	   -1.000000E+00	    1.000000E-03	    1.600000E-03	    8.010000E+02	
    1.103682E-02	    1.000523E-04	    5.156874E-04	   -1.000000E+00	    1.000000E-03	    1.600000E-03	    8.010000E+02	
    1.102105E-02	    6.310291E-05	    1.613692E-04	   -1.000000E+00	    1.000000E-03	    1.600000E-03	    8.010000E+02	
    1.101544E-02	    5.006315E-05	    0.000000E+00	    0.000000E+00	    1.000000E-03	    1.000000E-03	    1.000000E+03	
   -1.101411E-02	    5.061540E-05	    0.000000E+00	    0.000000E+00	    1.000000E-03	    1.000000E-03	    1.000000E+03	
   -1.101937E-02	    6.379700E-05	    3.087089E-04	   -1.000000E+00	    1.000000E-03	    1.600000E-03	    8.010000E+02	
   -1.103416E-02	    1.011438E-04	    9.866117E-04	   -1.000000E+00	    1.000000E-03	    1.600000E-03	    8.010000E+02	
   -1.105690E-02	    1.593095E-04	    1.860592E-03	   -1.000000E+00	    1.000000E-03	    1.600000E-03	    8.010000E+02	
   -1.109099E-02	    2.482516E-04	    3.086427E-03	   -1.000000E+00	    1.000000E-03	    1.600000E-03	    8.010000E+02	
   -1.114049E-02	    3.813437E-04	    4.854121E-03	   -1.000000E+00	    1.000000E-03	    1.600000E-03	    8.010000E+02	
   -1.120956E-02	    5.757463E-04	    7.396589E-03	   -1.000000E+00	    1.000000E-03	    1.600000E-03	    8.010000E+02	
   -1.130137E-02	    8.524183E-04	    1.099235E-02	   -1.000000E+00	    1.000000E-03	    1.600000E-03	    8.010000E+02	
   -1.141623E-02	    1.235581E-03	    1.596014E-02	   -1.000000E+00	    1.000000E-03	    1.600000E-03	    8.010000E+02	
   -1.154899E-02	    1.751397E-03	    2.264265E-02	   -1.000000E+00	    1.000000E-03	    1.600000E-03	    8.010000E+02	
   -1.168596E-02	    2.425535E-03	    3.137548E-02	   -1.000000E+00	    1.000000E-03	    1.600000E-03	    8.010000E+02	
   -1.180202E-02	    3.279249E-03	    4.243682E-02	   -1.000000E+00	    1.000000E-03	    1.600000E-03	    8.010000E+02	
   -1.185918E-02	    4.323751E-03	    5.597497E-02	   -1.000000E+00	    1.000000E-03	    1.600000E-03	    8.010000E+02	
   -1.180831E-02	    5.553339E-03	    7.191936E-02	   -1.000000E+00	    1.000000E-03	    1.600000E-03	    8.010000E+02	
   -1.159550E-02	    6.938989E-03	    8.989675E-02	   -1.000000E+00	    1.000000E-03	    1.600000E-03	    8.010000E+02	
   -1.117330E-02	    8.425532E-03	    1.091931E-01	   -1.000000E+00	    1.000000E-03	    1.600000E-03	    8.010000E+02	
   -1.051430E-02	    9.935781E-03	    1.288056E-01	   -1.000000E+00	    1.000000E-03	    1.600000E-03	    8.010000E+02	
   -9.621750E-03	    1.138276E-02	    1.476009E-01	   -1.000000E+00	    1.000000E-03	    1.600000E-03	    8.010000E+02	
   -8.531881E-03	    1.268683E-02	    1.645397E-01	   -1.000000E+00	    1.000000E-03	    1.600000E-03	    8.010000E+02	
   -7.306011E-03	    1.379121E-02	    1.788801E-01	   -1.000000E+00	    1.000000E-03	    1.600000E-03	    8.010000E+02	
   -6.016006E-03	    1.466968E-02	    1.902798E-01	   -1.000000E+00	    1.000000E-03	    1.600000E-03	    8.010000E+02	
   -4.729455E-03	    1.532497E-02	    1.987750E-01	   -1.000000E+00	    1.000000E-03	    1.600000E-03	    8.010000E+02	
   -3.499685E-03	    1.578067E-02	    2.046741E-01	   -1.000000E+00	    1.000000E-03	    1.600000E-03	    8.010000E+02	
   -2.362108E-03	    1.607117E-02	    2.084258E-01	   -1.000000E+00	    1.000000E-03	    1.600000E-03	    8.010000E+02	
   -1.335481E-03	    1.623335E-02	    2.105100E-01	   -1.000000E+00	    1.000000E-03	    1.600000E-03	    8.010000E+02	
   -4.256262E-04	    1.630114E-02	    2.113679E-01	   -1.000000E+00	    1.000000E-03	    1.600000E-03	    8.010000E+02	
    4.256262E-04	    1.630114E-02	    2.113679E-01	   -1.000000E+00	    1.000000E-03	    1.600000E-03	    8.010000E+02	
    1.335481E-03	    1.623335E-02	    2.105100E-01	   -1.000000E+00	    1.000000E-03	    1.600000E-03	    8.010000E+02	
    2.362108E-03	    1.607117E-02	    2.084258E-01	   -1.000000E+00	    1.000000E-03	    1.600000E-03	    8.010000E+02	
    3.499685E-03	    1.578067E-02	    2.046741E-01	   -1.000000E+00	    1.000000E-03	    1.600000E-03	    8.010000E+02	
    4.729455E-03	    1.532497E-02	    1.987750E-01	   -1.000000E+00	    1.000000E-03	    1.600000E-03	    8.010000E+02	
    6.016006E-03	    1.466968E-02	    1.902798E-01	   -1.000000E+00	    1.000000E-03	    1.600000E-03	    8.010000E+02	
    7.306011E-03	    1.379121E-02	    1.788801E-01	   -1.000000E+00	    1.000000E-03	    1.600000E-03	    8.010000E+02	
    8.531881E-03	    1.268683E-02	    1.645397E-01	   -1.000000E+00	    1.000000E-03	    1.600000E-03	    8.010000E+02	
    9.621750E-03	    1.138276E-02	    1.476009E-01	   -1.000000E+00	    1.000000E-03	    1.600000E-03	    8.010000E+02	
    1.051430E-02	    9.935781E-03	    1.288056E-01	   -1.000000E+00	    1.000000E-03	    1.600000E-03	    8.010000E+02	
    1.117330E-02	    8.425532E-03	    1.091931E-01	   -1.000000E+00	    1.000000E-03	    1.600000E-03	    8.010000E+02	
    1.159550E-02	    6.938989E-03	    8.989675E-02	   -1.000000E+00	    1.000000E-03	    1.600000E-03	    8.010000E+02	
    1.180831E-02	    5.553339E-03	    7.191936E-02	   -1.000000E+00	    1.000000E-03	    1.600000E-03	    8.010000E+02	
    1.185918E-02	    4.323751E-03	    5.597497E-02	   -1.000000E+00	    1.000000E-03	    1.600000E-03	    8.010000E+02	
    1.180202E-02	    3.279249E-03	    4.243682E-02	   -1.000000E+00	    1.000000E-03	    1.600000E-03	    8.010000E+02	
    1.168596E-02	    2.425535E-03	    3.137548E-02	   -1.000000E+00	    1.000000E-03	    1.600000E-03	    8.010000E+02	
    1.154899E-02	    1.751397E-03	    2.264265E-02	   -1.000000E+00	    1.000000E-03	    1.600000E-03	    8.010000E+02	
    1.141623E-02	    1.235581E-03	    1.596014E-02	   -1.000000E+00	    1.000000E-03	    1.600000E-03	    8.010000E+02	
    1.130137E-02	    8.524183E-04	    1.099235E-02	   -1.000000E+00	    1.000000E-03	    1.600000E-03	    8.010000E+02	
    1.120956E-02	    5.757463E-04	    7.396589E-03	   -1.000000E+00	    1.000000E-03	    1.600000E-03	    8.010000E+02	
    1.114049E-02	    3.813437E-04	    4.854121E-03	   -1.000000E+00	    1.000000E-03	    1.600000E-03	    8.010000E+02	
    1.109099E-02	    2.482516E-04	    3.086427E-03	   -1.000000E+00	    1.000000E-03	    1.600000E-03	    8.010000E+02	
    1.105690E-02	    1.593095E-04	    1.860592E-03	   -1.000000E+00	    1.000000E-03	    1.600000E-03	    8.010000E+02	
    1.103416E-02	    1.011438E-04	    9.866117E-04	   -1.000000E+00	    1.000000E-03	    1.600000E-03	    8.010000E+02	
    1.101937E-02	    6.379700E-05	    3.087089E-04	   -1.000000E+00	    1.000000E-03	    1.600000E-03	    8.010000E+02	
    1.101411E-02	    5.061540E-05	    0.000000E+00	    0.000000E+00	    1.000000E-03	    1.000000E-03	    1.000000E+03	
   -1.101236E-02	    5.128016E-05	    0.000000E+00	    0.000000E+00	    1.000000E-03	    1.000000E-03	    1.000000E+03	
   -1.101716E-02	    6.463221E-05	    4.997393E-04	   -1.000000E+00	    1.000000E-03	    1.600000E-03	    8.010000E+02	
   -1.103065E-02	    1.024559E-04	    1.597257E-03	   -1.000000E+00	    1.000000E-03	    1.600000E-03	    8.010000E+02	
   -1.105137E-02	    1.613467E-04	    3.011765E-03	   -1.000000E+00	    1.000000E-03	    1.600000E-03	    8.010000E+02	
   -1.108235E-02	    2.513559E-04	    4.994760E-03	   -1.000000E+00	    1.000000E-03	    1.600000E-03	    8.010000E+02	
   -1.112716E-02	    3.859510E-04	    7.852241E-03	   -1.000000E+00	    1.000000E-03	    1.600000E-03	    8.010000E+02	
   -1.118932E-02	    5.823471E-04	    1.195786E-02	   -1.000000E+00	    1.000000E-03	    1.600000E-03	    8.010000E+02	
   -1.127118E-02	    8.614435E-04	    1.775576E-02	   -1.000000E+00	    1.000000E-03	    1.600000E-03	    8.010000E+02	
   -1.137207E-02	    1.247166E-03	    2.574943E-02	   -1.000000E+00	    1.000000E-03	    1.600000E-03	    8.010000E+02	
   -1.148578E-02	    1.764968E-03	    3.647210E-02	   -1.000000E+00	    1.000000E-03	    1.600000E-03	    8.010000E+02	
   -1.159757E-02	    2.439191E-03	    5.043285E-02	   -1.000000E+00	    1.000000E-03	    1.600000E-03	    8.010000E+02	
   -1.168165E-02	    3.288956E-03	    6.803224E-02	   -1.000000E+00	    1.000000E-03	    1.600000E-03	    8.010000E+02	
   -1.170022E-02	    4.322507E-03	    8.944576E-02	   -1.000000E+00	    1.000000E-03	    1.600000E-03	    8.010000E+02	
   -1.160579E-02	    5.530659E-03	    1.144880E-01	   -1.000000E+00	    1.000000E-03	    1.600000E-03	    8.010000E+02	
   -1.134806E-02	    6.881202E-03	    1.424954E-01	   -1.000000E+00	    1.000000E-03	    1.600000E-03	    8.010000E+02	
   -1.088511E-02	    8.317343E-03	    1.722919E-01	   -1.000000E+00	    1.000000E-03	    1.600000E-03	    8.010000E+02	
   -1.019597E-02	    9.763063E-03	    2.022975E-01	   -1.000000E+00	    1.000000E-03	    1.600000E-03	    8.010000E+02	
   -9.289487E-03	    1.113578E-02	    2.307918E-01	   -1.000000E+00	    1.000000E-03	    1.600000E-03	    8.010000E+02	
   -8.204793E-03	    1.236266E-02	    2.562547E-01	   -1.000000E+00	    1.000000E-03	    1.600000E-03	    8.010000E+02	
   -7.002551E-03	    1.339412E-02	    2.776519E-01	   -1.000000E+00	    1.000000E-03	    1.600000E-03	    8.010000E+02	
   -5.750912E-03	    1.420970E-02	    2.945572E-01	   -1.000000E+00	    1.000000E-03	    1.600000E-03	    8.010000E+02	
   -4.512171E-03	    1.481528E-02	    3.070955E-01	   -1.000000E+00	    1.000000E-03	    1.600000E-03	    8.010000E+02	
   -3.334344E-03	    1.523501E-02	    3.157715E-01	   -1.000000E+00	    1.000000E-03	    1.600000E-03	    8.010000E+02	
   -2.248556E-03	    1.550199E-02	    3.212758E-01	   -1.000000E+00	    1.000000E-03	    1.600000E-03	    8.010000E+02	
   -1.270665E-03	    1.565083E-02	    3.243286E-01	   -1.000000E+00	    1.000000E-03	    1.600000E-03	    8.010000E+02	
   -4.048869E-04	    1.571300E-02	    3.255835E-01	   -1.000000E+00	    1.000000E-03	    1.600000E-03	    8.010000E+02	
    4.048869E-04	    1.571300E-02	    3.255835E-01	   -1.000000E+00	    1.000000E-03	    1.600000E-03	    8.010000E+02	
    1.270665E-03	    1.565083E-02	    3.243286E-01	   -1.000000E+00	    1.000000E-03	    1.600000E-03	    8.010000E+02	
    2.248556E-03	    1.550199E-02	    3.212758E-01	   -1.000000E+00	    1.000000E-03	    1.600000E-03	    8.010000E+02	
    3.334344E-03	    1.523501E-02	    3.157715E-01	   -1.000000E+00	    1.000000E-03	    1.600000E-03	    8.010000E+02	
    4.512171E-03	    1.481528E-02	    3.070955E-01	   -1.000000E+00	    1.000000E-03	    1.600000E-03	    8.010000E+02	
    5.750912E-03	    1.420970E-02	    2.945572E-01	   -1.000000E+00	    1.000000E-03	    1.600000E-03	    8.010000E+02	
    7.002551E-03	    1.339412E-02	    2.776519E-01	   -1.000000E+00	    1.000000E-03	    1.600000E-03	    8.010000E+02	
    8.204793E-03	    1.236266E-02	    2.562547E-01	   -1.000000E+00	    1.000000E-03	    1.600000E-03	    8.010000E+02	
    9.289487E-03	    1.113578E-02	    2.307918E-01	   -1.000000E+00	    1.000000E-03	    1.600000E-03	    8.010000E+02	
    1.019597E-02	    9.763063E-03	    2.022975E-01	   -1.000000E+00	    1.000000E-03	    1.600000E-03	    8.010000E+02	
    1.088511E-02	    8.317343E-03	    1.722919E-01	   -1.000000E+00	    1.000000E-03	    1.600000E-03	    8.010000E+02	
    1.134806E-02	    6.881202E-03	    1.424954E-01	   -1.000000E+00	    1.000000E-03	    1.600000E-03	    8.010000E+02	
    1.160579E-02	    5.530659E-03	    1.144880E-01	   -1.000000E+00	    1.000000E-03	    1.600000E-03	    8.010000E+02	
    1.170022E-02	    4.322507E-03	    8.944576E-02	   -1.000000E+00	    1.000000E-03	    1.600000E-03	    8.010000E+02	
    1.168165E-02	    3.288956E-03	    6.803224E-02	   -1.000000E+00	    1.000000E-03	    1.600000E-03	    8.010000E+02	