Title="Fields"
Variables="X""Y""Velocity""Phi""Effective Viscosity""Dynamic Viscosity""Density""Eddy Viscosity""K""Omega""S""F1SST""distance""GEN"
Zone I=52 J=52 F=POINT
   -1.214864E-02	    6.022430E-05	    0.000000E+00	    0.000000E+00	    1.000000E-03	    1.000000E-03	    1.000000E+03	    0.000000E+00	    0.000000E+00	    3.039697E+08	    0.000000E+00	    1.000000E+00	    0.000000E+00	    0.000000E+00	
   -1.214840E-02	    7.587059E-05	    0.000000E+00	    0.000000E+00	    1.000000E-03	    1.000000E-03	    1.000000E+03	    0.000000E+00	    0.000000E+00	    3.039697E+08	    0.000000E+00	    1.000000E+00	    0.000000E+00	    0.000000E+00	
   -1.214760E-02	    1.201162E-04	    0.000000E+00	    0.000000E+00	    1.000000E-03	    1.000000E-03	    1.000000E+03	    0.000000E+00	    0.000000E+00	    1.212788E+08	    0.000000E+00	    1.000000E+00	    0.000000E+00	    0.000000E+00	
   -1.214604E-02	    1.887791E-04	    0.000000E+00	    0.000000E+00	    1.000000E-03	    1.000000E-03	    1.000000E+03	    0.000000E+00	    0.000000E+00	    4.910171E+07	    0.000000E+00	    1.000000E+00	    0.000000E+00	    0.000000E+00	
   -1.214292E-02	    2.931943E-04	    0.000000E+00	    0.000000E+00	    1.000000E-03	    1.000000E-03	    1.000000E+03	    0.000000E+00	    0.000000E+00	    2.035722E+07	    0.000000E+00	    1.000000E+00	    0.000000E+00	    0.000000E+00	
   -1.213664E-02	    4.481479E-04	    0.000000E+00	    0.000000E+00	    1.000000E-03	    1.000000E-03	    1.000000E+03	    0.000000E+00	    0.000000E+00	    8.714137E+06	    0.000000E+00	    1.000000E+00	    0.000000E+00	    0.000000E+00	
   -1.212408E-02	    6.717413E-04	    0.000000E+00	    0.000000E+00	    1.000000E-03	    1.000000E-03	    1.000000E+03	    0.000000E+00	    0.000000E+00	    3.878976E+06	    0.000000E+00	    1.000000E+00	    0.000000E+00	    0.000000E+00	
   -1.209956E-02	    9.844691E-04	    0.000000E+00	    0.000000E+00	    1.000000E-03	    1.000000E-03	    1.000000E+03	    0.000000E+00	    0.000000E+00	    1.806311E+06	    0.000000E+00	    1.000000E+00	    0.000000E+00	    0.000000E+00	
   -1.205344E-02	    1.407248E-03	    0.000000E+00	    0.000000E+00	    1.000000E-03	    1.000000E-03	    1.000000E+03	    0.000000E+00	    0.000000E+00	    8.842149E+05	    0.000000E+00	    1.000000E+00	    0.000000E+00	    0.000000E+00	
   -1.197068E-02	    1.958259E-03	    0.000000E+00	    0.000000E+00	    1.000000E-03	    1.000000E-03	    1.000000E+03	    0.000000E+00	    0.000000E+00	    4.567639E+05	    0.000000E+00	    1.000000E+00	    0.000000E+00	    0.000000E+00	
   -1.182998E-02	    2.648730E-03	    0.000000E+00	    0.000000E+00	    1.000000E-03	    1.000000E-03	    1.000000E+03	    0.000000E+00	    0.000000E+00	    2.497602E+05	    0.000000E+00	    1.000000E+00	    0.000000E+00	    0.000000E+00	
   -1.160451E-02	    3.478208E-03	    0.000000E+00	    0.000000E+00	    1.000000E-03	    1.000000E-03	    1.000000E+03	    0.000000E+00	    0.000000E+00	    1.449066E+05	    0.000000E+00	    1.000000E+00	    0.000000E+00	    0.000000E+00	
   -1.126508E-02	    4.430482E-03	    0.000000E+00	    0.000000E+00	    1.000000E-03	    1.000000E-03	    1.000000E+03	    0.000000E+00	    0.000000E+00	    8.935685E+04	    0.000000E+00	    1.000000E+00	    0.000000E+00	    0.000000E+00	
   -1.078595E-02	    5.471869E-03	    0.000000E+00	    0.000000E+00	    1.000000E-03	    1.000000E-03	    1.000000E+03	    0.000000E+00	    0.000000E+00	    5.861536E+04	    0.000000E+00	    1.000000E+00	    0.000000E+00	    0.000000E+00	
   -1.015216E-02	    6.553542E-03	    0.000000E+00	    0.000000E+00	    1.000000E-03	    1.000000E-03	    1.000000E+03	    0.000000E+00	    0.000000E+00	    4.088795E+04	    0.000000E+00	    1.000000E+00	    0.000000E+00	    0.000000E+00	
   -9.365676E-03	    7.618437E-03	    0.000000E+00	    0.000000E+00	    1.000000E-03	    1.000000E-03	    1.000000E+03	    0.000000E+00	    0.000000E+00	    3.027465E+04	    0.000000E+00	    1.000000E+00	    0.000000E+00	    0.000000E+00	
   -8.447592E-03	    8.611236E-03	    0.000000E+00	    0.000000E+00	    1.000000E-03	    1.000000E-03	    1.000000E+03	    0.000000E+00	    0.000000E+00	    2.370987E+04	    0.000000E+00	    1.000000E+00	    0.000000E+00	    0.000000E+00	
   -7.434908E-03	    9.488112E-03	    0.000000E+00	    0.000000E+00	    1.000000E-03	    1.000000E-03	    1.000000E+03	    0.000000E+00	    0.000000E+00	    1.954000E+04	    0.000000E+00	    1.000000E+00	    0.000000E+00	    0.000000E+00	
   -6.373132E-03	    1.022286E-02	    0.000000E+00	    0.000000E+00	    1.000000E-03	    1.000000E-03	    1.000000E+03	    0.000000E+00	    0.000000E+00	    1.683959E+04	    0.000000E+00	    1.000000E+00	    0.000000E+00	    0.000000E+00	
   -5.307702E-03	    1.080785E-02	    0.000000E+00	    0.000000E+00	    1.000000E-03	    1.000000E-03	    1.000000E+03	    0.000000E+00	    0.000000E+00	    1.507136E+04	    0.000000E+00	    1.000000E+00	    0.000000E+00	    0.000000E+00	
   -4.277189E-03	    1.125075E-02	    0.000000E+00	    0.000000E+00	    1.000000E-03	    1.000000E-03	    1.000000E+03	    0.000000E+00	    0.000000E+00	    1.391196E+04	    0.000000E+00	    1.000000E+00	    0.000000E+00	    0.000000E+00	
   -3.309761E-03	    1.156901E-02	    0.000000E+00	    0.000000E+00	    1.000000E-03	    1.000000E-03	    1.000000E+03	    0.000000E+00	    0.000000E+00	    1.315972E+04	    0.000000E+00	    1.000000E+00	    0.000000E+00	    0.000000E+00	
   -2.422724E-03	    1.178450E-02	    0.000000E+00	    0.000000E+00	    1.000000E-03	    1.000000E-03	    1.000000E+03	    0.000000E+00	    0.000000E+00	    1.268459E+04	    0.000000E+00	    1.000000E+00	    0.000000E+00	    0.000000E+00	
   -1.624046E-03	    1.191947E-02	    0.000000E+00	    0.000000E+00	    1.000000E-03	    1.000000E-03	    1.000000E+03	    0.000000E+00	    0.000000E+00	    1.240003E+04	    0.000000E+00	    1.000000E+00	    0.000000E+00	    0.000000E+00	
   -9.147101E-04	    1.199402E-02	    0.000000E+00	    0.000000E+00	    1.000000E-03	    1.000000E-03	    1.000000E+03	    0.000000E+00	    0.000000E+00	    1.224696E+04	    0.000000E+00	    1.000000E+00	    0.000000E+00	    0.000000E+00	
   -2.910617E-04	    1.202501E-02	    0.000000E+00	    0.000000E+00	    1.000000E-03	    1.000000E-03	    1.000000E+03	    0.000000E+00	    0.000000E+00	    1.218415E+04	    0.000000E+00	    1.000000E+00	    0.000000E+00	    0.000000E+00	
    2.910617E-04	    1.202501E-02	    0.000000E+00	    0.000000E+00	    1.000000E-03	    1.000000E-03	    1.000000E+03	    0.000000E+00	    0.000000E+00	    1.218415E+04	    0.000000E+00	    1.000000E+00	    0.000000E+00	    0.000000E+00	
    9.147101E-04	    1.199402E-02	    0.000000E+00	    0.000000E+00	    1.000000E-03	    1.000000E-03	    1.000000E+03	    0.000000E+00	    0.000000E+00	    1.224696E+04	    0.000000E+00	    1.000000E+00	    0.000000E+00	    0.000000E+00	
    1.624046E-03	    1.191947E-02	    0.000000E+00	    0.000000E+00	    1.000000E-03	    1.000000E-03	    1.000000E+03	    0.000000E+00	    0.000000E+00	    1.240003E+04	    0.000000E+00	    1.000000E+00	    0.000000E+00	    0.000000E+00	
    2.422724E-03	    1.178450E-02	    0.000000E+00	    0.000000E+00	    1.000000E-03	    1.000000E-03	    1.000000E+03	    0.000000E+00	    0.000000E+00	    1.268459E+04	    0.000000E+00	    1.000000E+00	    0.000000E+00	    0.000000E+00	
    3.309761E-03	    1.156901E-02	    0.000000E+00	    0.000000E+00	    1.000000E-03	    1.000000E-03	    1.000000E+03	    0.000000E+00	    0.000000E+00	    1.315972E+04	    0.000000E+00	    1.000000E+00	    0.000000E+00	    0.000000E+00	
    4.277189E-03	    1.125075E-02	    0.000000E+00	    0.000000E+00	    1.000000E-03	    1.000000E-03	    1.000000E+03	    0.000000E+00	    0.000000E+00	    1.391196E+04	    0.000000E+00	    1.000000E+00	    0.000000E+00	    0.000000E+00	
    5.307702E-03	    1.080785E-02	    0.000000E+00	    0.000000E+00	    1.000000E-03	    1.000000E-03	    1.000000E+03	    0.000000E+00	    0.000000E+00	    1.507136E+04	    0.000000E+00	    1.000000E+00	    0.000000E+00	    0.000000E+00	
    6.373132E-03	    1.022286E-02	    0.000000E+00	    0.000000E+00	    1.000000E-03	    1.000000E-03	    1.000000E+03	    0.000000E+00	    0.000000E+00	    1.683959E+04	    0.000000E+00	    1.000000E+00	    0.000000E+00	    0.000000E+00	
    7.434908E-03	    9.488112E-03	    0.000000E+00	    0.000000E+00	    1.000000E-03	    1.000000E-03	    1.000000E+03	    0.000000E+00	    0.000000E+00	    1.954000E+04	    0.000000E+00	    1.000000E+00	    0.000000E+00	    0.000000E+00	
    8.447592E-03	    8.611236E-03	    0.000000E+00	    0.000000E+00	    1.000000E-03	    1.000000E-03	    1.000000E+03	    0.000000E+00	    0.000000E+00	    2.370987E+04	    0.000000E+00	    1.000000E+00	    0.000000E+00	    0.000000E+00	
    9.365676E-03	    7.618437E-03	    0.000000E+00	    0.000000E+00	    1.000000E-03	    1.000000E-03	    1.000000E+03	    0.000000E+00	    0.000000E+00	    3.027465E+04	    0.000000E+00	    1.000000E+00	    0.000000E+00	    0.000000E+00	
    1.015216E-02	    6.553542E-03	    0.000000E+00	    0.000000E+00	    1.000000E-03	    1.000000E-03	    1.000000E+03	    0.000000E+00	    0.000000E+00	    4.088795E+04	    0.000000E+00	    1.000000E+00	    0.000000E+00	    0.000000E+00	
    1.078595E-02	    5.471869E-03	    0.000000E+00	    0.000000E+00	    1.000000E-03	    1.000000E-03	    1.000000E+03	    0.000000E+00	    0.000000E+00	    5.861536E+04	    0.000000E+00	    1.000000E+00	    0.000000E+00	    0.000000E+00	
    1.126508E-02	    4.430482E-03	    0.000000E+00	    0.000000E+00	    1.000000E-03	    1.000000E-03	    1.000000E+03	    0.000000E+00	    0.000000E+00	    8.935685E+04	    0.000000E+00	    1.000000E+00	    0.000000E+00	    0.000000E+00	
    1.160451E-02	    3.478208E-03	    0.000000E+00	    0.000000E+00	    1.000000E-03	    1.000000E-03	    1.000000E+03	    0.000000E+00	    0.000000E+00	    1.449066E+05	    0.000000E+00	    1.000000E+00	    0.000000E+00	    0.000000E+00	
    1.182998E-02	    2.648730E-03	    0.000000E+00	    0.000000E+00	    1.000000E-03	    1.000000E-03	    1.000000E+03	    0.000000E+00	    0.000000E+00	    2.497602E+05	    0.000000E+00	    1.000000E+00	    0.000000E+00	    0.000000E+00	
    1.197068E-02	    1.958259E-03	    0.000000E+00	    0.000000E+00	    1.000000E-03	    1.000000E-03	    1.000000E+03	    0.000000E+00	    0.000000E+00	    4.567639E+05	    0.000000E+00	    1.000000E+00	    0.000000E+00	    0.000000E+00	
    1.205344E-02	    1.407248E-03	    0.000000E+00	    0.000000E+00	    1.000000E-03	    1.000000E-03	    1.000000E+03	    0.000000E+00	    0.000000E+00	    8.842149E+05	    0.000000E+00	    1.000000E+00	    0.000000E+00	    0.000000E+00	
    1.209956E-02	    9.844691E-04	    0.000000E+00	    0.000000E+00	    1.000000E-03	    1.000000E-03	    1.000000E+03	    0.000000E+00	    0.000000E+00	    1.806311E+06	    0.000000E+00	    1.000000E+00	    0.000000E+00	    0.000000E+00	
    1.212408E-02	    6.717413E-04	    0.000000E+00	    0.000000E+00	    1.000000E-03	    1.000000E-03	    1.000000E+03	    0.000000E+00	    0.000000E+00	    3.878976E+06	    0.000000E+00	    1.000000E+00	    0.000000E+00	    0.000000E+00	
    1.213664E-02	    4.481479E-04	    0.000000E+00	    0.000000E+00	    1.000000E-03	    1.000000E-03	    1.000000E+03	    0.000000E+00	    0.000000E+00	    8.714137E+06	    0.000000E+00	    1.000000E+00	    0.000000E+00	    0.000000E+00	
    1.214292E-02	    2.931943E-04	    0.000000E+00	    0.000000E+00	    1.000000E-03	    1.000000E-03	    1.000000E+03	    0.000000E+00	    0.000000E+00	    2.035722E+07	    0.000000E+00	    1.000000E+00	    0.000000E+00	    0.000000E+00	
    1.214604E-02	    1.887791E-04	    0.000000E+00	    0.000000E+00	    1.000000E-03	    1.000000E-03	    1.000000E+03	    0.000000E+00	    0.000000E+00	    4.910171E+07	    0.000000E+00	    1.000000E+00	    0.000000E+00	    0.000000E+00	
    1.214760E-02	    1.201162E-04	    0.000000E+00	    0.000000E+00	    1.000000E-03	    1.000000E-03	    1.000000E+03	    0.000000E+00	    0.000000E+00	    1.212788E+08	    0.000000E+00	    1.000000E+00	    0.000000E+00	    0.000000E+00	
    1.214840E-02	    7.587059E-05	    0.000000E+00	    0.000000E+00	    1.000000E-03	    1.000000E-03	    1.000000E+03	    0.000000E+00	    0.000000E+00	    3.039697E+08	    0.000000E+00	    1.000000E+00	    0.000000E+00	    0.000000E+00	
    1.214864E-02	    6.022430E-05	    0.000000E+00	    0.000000E+00	    1.000000E-03	    1.000000E-03	    1.000000E+03	    0.000000E+00	    0.000000E+00	    0.000000E+00	    0.000000E+00	    1.000000E+00	    0.000000E+00	    0.000000E+00	
   -1.214823E-02	    6.021683E-05	    0.000000E+00	    0.000000E+00	    1.000000E-03	    1.000000E-03	    1.000000E+03	    0.000000E+00	    0.000000E+00	    0.000000E+00	    0.000000E+00	    1.000000E+00	    0.000000E+00	    0.000000E+00	
   -1.214788E-02	    7.586052E-05	    4.741124E-05	   -1.000000E+00	    1.000000E-03	    1.000000E-03	    1.000000E+03	    1.065305E-15	    3.238206E-10	    3.039697E+08	    8.544847E+03	    1.000000E+00	    5.130147E-07	    4.330626E+00	
   -1.214679E-02	    1.200973E-04	    1.514350E-04	   -1.000000E+00	    1.000000E-03	    1.000000E-03	    1.000000E+03	    6.200512E-15	    7.519909E-10	    1.212788E+08	    3.475730E+04	    1.000000E+00	    8.121804E-07	    8.410162E+00	
   -1.214476E-02	    1.887422E-04	    2.854840E-04	   -1.000000E+00	    1.000000E-03	    1.000000E-03	    1.000000E+03	    5.455898E-14	    2.678939E-09	    4.910171E+07	    5.000480E+04	    1.000000E+00	    1.276429E-06	    1.211564E+01	
   -1.214094E-02	    2.931200E-04	    4.732191E-04	   -1.000000E+00	    1.000000E-03	    1.000000E-03	    1.000000E+03	    3.637356E-13	    7.404647E-09	    2.035722E+07	    5.695410E+04	    1.000000E+00	    1.982375E-06	    1.384267E+01	
   -1.213361E-02	    4.479957E-04	    7.423130E-04	   -1.000000E+00	    1.000000E-03	    1.000000E-03	    1.000000E+03	    2.112153E-12	    1.840559E-08	    8.714137E+06	    5.997608E+04	    1.000000E+00	    3.029932E-06	    1.465457E+01	
   -1.211955E-02	    6.714295E-04	    1.123365E-03	   -1.000000E+00	    1.000000E-03	    1.000000E-03	    1.000000E+03	    1.104165E-11	    4.283028E-08	    3.878976E+06	    6.112078E+04	    1.000000E+00	    4.541366E-06	    1.505914E+01	
   -1.209293E-02	    9.838410E-04	    1.647638E-03	   -1.000000E+00	    1.000000E-03	    1.000000E-03	    1.000000E+03	    5.221353E-11	    9.431389E-08	    1.806311E+06	    6.119728E+04	    1.000000E+00	    6.655010E-06	    1.526262E+01	
   -1.204401E-02	    1.406019E-03	    2.347045E-03	   -1.000000E+00	    1.000000E-03	    1.000000E-03	    1.000000E+03	    2.236250E-10	    1.977325E-07	    8.842149E+05	    6.074666E+04	    1.000000E+00	    9.511874E-06	    1.541008E+01	
   -1.195765E-02	    1.955950E-03	    3.248443E-03	   -1.000000E+00	    1.000000E-03	    1.000000E-03	    1.000000E+03	    8.658478E-10	    3.954880E-07	    4.567639E+05	    6.005865E+04	    1.000000E+00	    1.323424E-05	    1.558190E+01	
   -1.181256E-02	    2.644593E-03	    4.364827E-03	   -1.000000E+00	    1.000001E-03	    1.000000E-03	    1.000000E+03	    3.016073E-09	    7.532949E-07	    2.497602E+05	    5.922365E+04	    1.000000E+00	    1.789713E-05	    1.580008E+01	
   -1.158209E-02	    3.471175E-03	    5.690002E-03	   -1.000000E+00	    1.000002E-03	    1.000000E-03	    1.000000E+03	    9.403053E-09	    1.362564E-06	    1.449066E+05	    5.830975E+04	    1.000000E+00	    2.349639E-05	    1.607183E+01	
   -1.123737E-02	    4.419185E-03	    7.191552E-03	   -1.000000E+00	    1.000006E-03	    1.000000E-03	    1.000000E+03	    2.606323E-08	    2.328928E-06	    8.935685E+04	    5.734170E+04	    1.000000E+00	    2.992139E-05	    1.637623E+01	
   -1.075321E-02	    5.454763E-03	    8.837616E-03	   -1.000000E+00	    1.000014E-03	    1.000000E-03	    1.000000E+03	    6.450705E-08	    3.781104E-06	    5.861536E+04	    5.669476E+04	    1.000000E+00	    3.694375E-05	    1.682051E+01	
   -1.011527E-02	    6.529136E-03	    1.050730E-02	   -1.000000E+00	    1.000031E-03	    1.000000E-03	    1.000000E+03	    1.398560E-07	    5.718426E-06	    4.088795E+04	    5.577570E+04	    1.000000E+00	    4.423348E-05	    1.715552E+01	
   -9.326135E-03	    7.585587E-03	    1.217033E-02	   -1.000000E+00	    1.000060E-03	    1.000000E-03	    1.000000E+03	    2.708402E-07	    8.199593E-06	    3.027465E+04	    5.526214E+04	    1.000000E+00	    5.140587E-05	    1.761773E+01	
   -8.407302E-03	    8.569391E-03	    1.371356E-02	   -1.000000E+00	    1.000102E-03	    1.000000E-03	    1.000000E+03	    4.650129E-07	    1.102539E-05	    2.370987E+04	    5.478957E+04	    1.000000E+00	    5.808887E-05	    1.802762E+01	
   -7.395856E-03	    9.437422E-03	    1.504385E-02	   -1.000000E+00	    1.000156E-03	    1.000000E-03	    1.000000E+03	    7.106525E-07	    1.388615E-05	    1.954000E+04	    5.416482E+04	    1.000000E+00	    6.398848E-05	    1.829040E+01	
   -6.337080E-03	    1.016411E-02	    1.616769E-02	   -1.000000E+00	    1.000218E-03	    1.000000E-03	    1.000000E+03	    9.898982E-07	    1.666948E-05	    1.683959E+04	    5.374027E+04	    1.000000E+00	    6.892962E-05	    1.855983E+01	
   -5.275969E-03	    1.074227E-02	    1.706770E-02	   -1.000000E+00	    1.000280E-03	    1.000000E-03	    1.000000E+03	    1.270685E-06	    1.915096E-05	    1.507136E+04	    5.344005E+04	    1.000000E+00	    7.286231E-05	    1.879495E+01	
   -4.250575E-03	    1.117974E-02	    1.775185E-02	   -1.000000E+00	    1.000335E-03	    1.000000E-03	    1.000000E+03	    1.523274E-06	    2.119173E-05	    1.391196E+04	    5.322537E+04	    1.000000E+00	    7.583887E-05	    1.898104E+01	
   -3.288589E-03	    1.149396E-02	    1.824477E-02	   -1.000000E+00	    1.000380E-03	    1.000000E-03	    1.000000E+03	    1.728492E-06	    2.274648E-05	    1.315972E+04	    5.307443E+04	    1.000000E+00	    7.797729E-05	    1.911771E+01	
   -2.406939E-03	    1.170666E-02	    1.857903E-02	   -1.000000E+00	    1.000414E-03	    1.000000E-03	    1.000000E+03	    1.879576E-06	    2.384164E-05	    1.268459E+04	    5.297238E+04	    1.000000E+00	    7.942503E-05	    1.921114E+01	
   -1.613344E-03	    1.183985E-02	    1.878845E-02	   -1.000000E+00	    1.000435E-03	    1.000000E-03	    1.000000E+03	    1.979416E-06	    2.454482E-05	    1.240003E+04	    5.290752E+04	    1.000000E+00	    8.033169E-05	    1.926965E+01	
   -9.086451E-04	    1.191341E-02	    1.890391E-02	   -1.000000E+00	    1.000448E-03	    1.000000E-03	    1.000000E+03	    2.036287E-06	    2.493832E-05	    1.224696E+04	    5.287012E+04	    1.000000E+00	    8.083244E-05	    1.930148E+01	
   -2.891269E-04	    1.194400E-02	    1.895142E-02	   -1.000000E+00	    1.000453E-03	    1.000000E-03	    1.000000E+03	    2.060185E-06	    2.510161E-05	    1.218415E+04	    5.285177E+04	    1.000000E+00	    8.104063E-05	    1.931362E+01	
    2.891269E-04	    1.194400E-02	    1.895142E-02	   -1.000000E+00	    1.000453E-03	    1.000000E-03	    1.000000E+03	    2.060185E-06	    2.510161E-05	    1.218415E+04	    5.285177E+04	    1.000000E+00	    8.104063E-05	    1.931362E+01	
    9.086451E-04	    1.191341E-02	    1.890391E-02	   -1.000000E+00	    1.000448E-03	    1.000000E-03	    1.000000E+03	    2.036287E-06	    2.493832E-05	    1.224696E+04	    5.287012E+04	    1.000000E+00	    8.083244E-05	    1.930148E+01	
    1.613344E-03	    1.183985E-02	    1.878845E-02	   -1.000000E+00	    1.000435E-03	    1.000000E-03	    1.000000E+03	    1.979416E-06	    2.454482E-05	    1.240003E+04	    5.290752E+04	    1.000000E+00	    8.033169E-05	    1.926965E+01	
    2.406939E-03	    1.170666E-02	    1.857903E-02	   -1.000000E+00	    1.000414E-03	    1.000000E-03	    1.000000E+03	    1.879576E-06	    2.384164E-05	    1.268459E+04	    5.297238E+04	    1.000000E+00	    7.942503E-05	    1.921114E+01	
    3.288589E-03	    1.149396E-02	    1.824477E-02	   -1.000000E+00	    1.000380E-03	    1.000000E-03	    1.000000E+03	    1.728492E-06	    2.274648E-05	    1.315972E+04	    5.307443E+04	    1.000000E+00	    7.797729E-05	    1.911771E+01	
    4.250575E-03	    1.117974E-02	    1.775185E-02	   -1.000000E+00	    1.000335E-03	    1.000000E-03	    1.000000E+03	    1.523274E-06	    2.119173E-05	    1.391196E+04	    5.322537E+04	    1.000000E+00	    7.583887E-05	    1.898104E+01	
    5.275969E-03	    1.074227E-02	    1.706770E-02	   -1.000000E+00	    1.000280E-03	    1.000000E-03	    1.000000E+03	    1.270685E-06	    1.915096E-05	    1.507136E+04	    5.344005E+04	    1.000000E+00	    7.286231E-05	    1.879495E+01	
    6.337080E-03	    1.016411E-02	    1.616769E-02	   -1.000000E+00	    1.000218E-03	    1.000000E-03	    1.000000E+03	    9.898982E-07	    1.666948E-05	    1.683959E+04	    5.374027E+04	    1.000000E+00	    6.892962E-05	    1.855983E+01	
    7.395856E-03	    9.437422E-03	    1.504385E-02	   -1.000000E+00	    1.000156E-03	    1.000000E-03	    1.000000E+03	    7.106525E-07	    1.388615E-05	    1.954000E+04	    5.416482E+04	    1.000000E+00	    6.398848E-05	    1.829040E+01	
    8.407302E-03	    8.569391E-03	    1.371356E-02	   -1.000000E+00	    1.000102E-03	    1.000000E-03	    1.000000E+03	    4.650129E-07	    1.102539E-05	    2.370987E+04	    5.478957E+04	    1.000000E+00	    5.808887E-05	    1.802762E+01	
    9.326135E-03	    7.585587E-03	    1.217033E-02	   -1.000000E+00	    1.000060E-03	    1.000000E-03	    1.000000E+03	    2.708402E-07	    8.199593E-06	    3.027465E+04	    5.526214E+04	    1.000000E+00	    5.140587E-05	    1.761773E+01	
    1.011527E-02	    6.529136E-03	    1.050730E-02	   -1.000000E+00	    1.000031E-03	    1.000000E-03	    1.000000E+03	    1.398560E-07	    5.718426E-06	    4.088795E+04	    5.577570E+04	    1.000000E+00	    4.423348E-05	    1.715552E+01	
    1.075321E-02	    5.454763E-03	    8.837616E-03	   -1.000000E+00	    1.000014E-03	    1.000000E-03	    1.000000E+03	    6.450705E-08	    3.781104E-06	    5.861536E+04	    5.669476E+04	    1.000000E+00	    3.694375E-05	    1.682051E+01	
    1.123737E-02	    4.419185E-03	    7.191552E-03	   -1.000000E+00	    1.000006E-03	    1.000000E-03	    1.000000E+03	    2.606323E-08	    2.328928E-06	    8.935685E+04	    5.734170E+04	    1.000000E+00	    2.992139E-05	    1.637623E+01	
    1.158209E-02	    3.471175E-03	    5.690002E-03	   -1.000000E+00	    1.000002E-03	    1.000000E-03	    1.000000E+03	    9.403053E-09	    1.362564E-06	    1.449066E+05	    5.830975E+04	    1.000000E+00	    2.349639E-05	    1.607183E+01	
    1.181256E-02	    2.644593E-03	    4.364827E-03	   -1.000000E+00	    1.000001E-03	    1.000000E-03	    1.000000E+03	    3.016073E-09	    7.532949E-07	    2.497602E+05	    5.922365E+04	    1.000000E+00	    1.789713E-05	    1.580008E+01	
    1.195765E-02	    1.955950E-03	    3.248443E-03	   -1.000000E+00	    1.000000E-03	    1.000000E-03	    1.000000E+03	    8.658478E-10	    3.954880E-07	    4.567639E+05	    6.005865E+04	    1.000000E+00	    1.323424E-05	    1.558190E+01	
    1.204401E-02	    1.406019E-03	    2.347045E-03	   -1.000000E+00	    1.000000E-03	    1.000000E-03	    1.000000E+03	    2.236250E-10	    1.977325E-07	    8.842149E+05	    6.074666E+04	    1.000000E+00	    9.511874E-06	    1.541008E+01	
    1.209293E-02	    9.838410E-04	    1.647638E-03	   -1.000000E+00	    1.000000E-03	    1.000000E-03	    1.000000E+03	    5.221353E-11	    9.431389E-08	    1.806311E+06	    6.119728E+04	    1.000000E+00	    6.655010E-06	    1.526262E+01	
    1.211955E-02	    6.714295E-04	    1.123365E-03	   -1.000000E+00	    1.000000E-03	    1.000000E-03	    1.000000E+03	    1.104165E-11	    4.283028E-08	    3.878976E+06	    6.112078E+04	    1.000000E+00	    4.541366E-06	    1.505914E+01	
    1.213361E-02	    4.479957E-04	    7.423130E-04	   -1.000000E+00	    1.000000E-03	    1.000000E-03	    1.000000E+03	    2.112153E-12	    1.840559E-08	    8.714137E+06	    5.997608E+04	    1.000000E+00	    3.029932E-06	    1.465457E+01	
    1.214094E-02	    2.931200E-04	    4.732191E-04	   -1.000000E+00	    1.000000E-03	    1.000000E-03	    1.000000E+03	    3.637356E-13	    7.404647E-09	    2.035722E+07	    5.695410E+04	    1.000000E+00	    1.982375E-06	    1.384267E+01	
    1.214476E-02	    1.887422E-04	    2.854840E-04	   -1.000000E+00	    1.000000E-03	    1.000000E-03	    1.000000E+03	    5.455898E-14	    2.678939E-09	    4.910171E+07	    5.000480E+04	    1.000000E+00	    1.276429E-06	    1.211564E+01	
    1.214679E-02	    1.200973E-04	    1.514350E-04	   -1.000000E+00	    1.000000E-03	    1.000000E-03	    1.000000E+03	    6.200512E-15	    7.519909E-10	    1.212788E+08	    3.475730E+04	    1.000000E+00	    8.121804E-07	    8.410162E+00	
    1.214788E-02	    7.586052E-05	    4.741124E-05	   -1.000000E+00	    1.000000E-03	    1.000000E-03	    1.000000E+03	    1.065305E-15	    3.238206E-10	    3.039697E+08	    8.544847E+03	    1.000000E+00	    5.130147E-07	    4.330626E+00	
    1.214823E-02	    6.021683E-05	    0.000000E+00	    0.000000E+00	    1.000000E-03	    1.000000E-03	    1.000000E+03	    0.000000E+00	    0.000000E+00	    3.267914E+05	    0.000000E+00	    1.000000E+00	    0.000000E+00	    0.000000E+00	
   -1.214729E-02	    6.018900E-05	    0.000000E+00	    0.000000E+00	    1.000000E-03	    1.000000E-03	    1.000000E+03	    0.000000E+00	    0.000000E+00	    3.267914E+05	    0.000000E+00	    1.000000E+00	    0.000000E+00	    0.000000E+00	
   -1.214670E-02	    7.582392E-05	    1.570808E-04	   -1.000000E+00	    1.000000E-03	    1.000000E-03	    1.000000E+03	    1.786919E-11	    5.839499E-09	    3.267914E+05	    8.614669E+03	    1.000000E+00	    1.700203E-06	    6.550410E-02	
   -1.214491E-02	    1.200325E-04	    5.017591E-04	   -1.000000E+00	    1.000000E-03	    1.000000E-03	    1.000000E+03	    7.892096E-15	    1.333885E-10	    1.690153E+07	    3.477072E+04	    5.244833E-03	    2.691603E-06	    2.744138E-10	
   -1.214181E-02	    1.886237E-04	    9.458418E-04	   -1.000000E+00	    1.000000E-03	    1.000000E-03	    1.000000E+03	    8.217408E-14	    5.870987E-10	    7.144572E+06	    4.998915E+04	    1.000000E+00	    4.229957E-06	    4.107812E-09	
   -1.213636E-02	    2.928967E-04	    1.567608E-03	   -1.000000E+00	    1.000000E-03	    1.000000E-03	    1.000000E+03	    8.010647E-13	    2.373200E-09	    2.962557E+06	    5.691591E+04	    1.000000E+00	    6.568948E-06	    4.559333E-08	
   -1.212662E-02	    4.475651E-04	    2.458479E-03	   -1.000000E+00	    1.000000E-03	    1.000000E-03	    1.000000E+03	    7.142492E-12	    9.059749E-09	    1.268430E+06	    5.991268E+04	    1.000000E+00	    1.003921E-05	    4.279258E-07	
   -1.210908E-02	    6.705914E-04	    3.719282E-03	   -1.000000E+00	    1.000000E-03	    1.000000E-03	    1.000000E+03	    5.772486E-11	    3.260299E-08	    5.647998E+05	    6.102400E+04	    1.000000E+00	    1.504495E-05	    3.522602E-06	
   -1.207763E-02	    9.822180E-04	    5.452533E-03	   -1.000000E+00	    1.000000E-03	    1.000000E-03	    1.000000E+03	    4.124642E-10	    1.085289E-07	    2.631233E+05	    6.105452E+04	    1.000000E+00	    2.204275E-05	    2.518281E-05	
   -1.202224E-02	    1.402938E-03	    7.762141E-03	   -1.000000E+00	    1.000001E-03	    1.000000E-03	    1.000000E+03	    2.589180E-09	    3.336890E-07	    1.288782E+05	    6.054197E+04	    1.000000E+00	    3.149672E-05	    1.567541E-04	
   -1.192760E-02	    1.950285E-03	    1.073424E-02	   -1.000000E+00	    1.000003E-03	    1.000000E-03	    1.000000E+03	    1.414828E-08	    9.426433E-07	    6.662600E+04	    5.977188E+04	    1.000000E+00	    4.380714E-05	    8.456693E-04	
   -1.177247E-02	    2.634602E-03	    1.440791E-02	   -1.000000E+00	    1.000015E-03	    1.000000E-03	    1.000000E+03	    6.662673E-08	    2.429568E-06	    3.646537E+04	    5.882587E+04	    1.000000E+00	    5.921575E-05	    3.919375E-03	
   -1.153055E-02	    3.454397E-03	    1.875777E-02	   -1.000000E+00	    1.000059E-03	    1.000000E-03	    1.000000E+03	    2.687596E-07	    5.692064E-06	    2.117902E+04	    5.774875E+04	    1.000000E+00	    7.770067E-05	    1.552053E-02	
   -1.117378E-02	    4.392487E-03	    2.367123E-02	   -1.000000E+00	    1.000203E-03	    1.000000E-03	    1.000000E+03	    9.217967E-07	    1.205154E-05	    1.307397E+04	    5.650437E+04	    1.000000E+00	    9.888753E-05	    5.208554E-02	
   -1.067819E-02	    5.414629E-03	    2.903855E-02	   -1.000000E+00	    1.000601E-03	    1.000000E-03	    1.000000E+03	    2.731809E-06	    2.344805E-05	    8.583340E+03	    5.534796E+04	    1.000000E+00	    1.220149E-04	    1.512001E-01	
   -1.003092E-02	    6.472204E-03	    3.445535E-02	   -1.000000E+00	    1.001495E-03	    1.000000E-03	    1.000000E+03	    6.795915E-06	    4.070684E-05	    5.989897E+03	    5.355391E+04	    1.000000E+00	    1.459906E-04	    3.639478E-01	
   -9.235913E-03	    7.509312E-03	    3.982054E-02	   -1.000000E+00	    1.003245E-03	    1.000000E-03	    1.000000E+03	    1.475142E-05	    6.541485E-05	    4.434478E+03	    5.173120E+04	    1.000000E+00	    1.695485E-04	    7.631086E-01	
   -8.315535E-03	    8.472593E-03	    4.476124E-02	   -1.000000E+00	    1.006061E-03	    1.000000E-03	    1.000000E+03	    2.754834E-05	    9.563097E-05	    3.471387E+03	    4.968732E+04	    1.000000E+00	    1.914705E-04	    1.368803E+00	
   -7.307050E-03	    9.320514E-03	    4.897742E-02	   -1.000000E+00	    1.009812E-03	    1.000000E-03	    1.000000E+03	    4.459880E-05	    1.275474E-04	    2.859883E+03	    4.752406E+04	    1.000000E+00	    2.108000E-04	    2.119516E+00	
   -6.255204E-03	    1.002892E-02	    5.250349E-02	   -1.000000E+00	    1.014266E-03	    1.000000E-03	    1.000000E+03	    6.484326E-05	    1.597922E-04	    2.464283E+03	    4.570503E+04	    1.000000E+00	    2.269729E-04	    2.963663E+00	
   -5.203978E-03	    1.059161E-02	    5.529794E-02	   -1.000000E+00	    1.018863E-03	    1.000000E-03	    1.000000E+03	    8.574238E-05	    1.891256E-04	    2.205742E+03	    4.425683E+04	    1.000000E+00	    2.398345E-04	    3.794686E+00	