Title="Field"
Variables="X","Y","DN","W","K","Omega","T","S","phi"
Zone I=52 J=52 F=POINT
   -1.214985E-02	    6.023331E-05	    0.000000E+00	    0.000000E+00	    0.000000E+00	    3.000436E+08	    0.000000E+00	    0.000000E+00	   -1.000000E+00	
   -1.214976E-02	    7.588291E-05	    0.000000E+00	    0.000000E+00	    0.000000E+00	    3.000436E+08	    0.000000E+00	    0.000000E+00	   -1.000000E+00	
   -1.214941E-02	    1.201401E-04	    0.000000E+00	    0.000000E+00	    0.000000E+00	    1.197037E+08	    0.000000E+00	    0.000000E+00	   -1.000000E+00	
   -1.214853E-02	    1.888273E-04	    0.000000E+00	    0.000000E+00	    0.000000E+00	    4.845851E+07	    0.000000E+00	    0.000000E+00	   -1.000000E+00	
   -1.214646E-02	    2.932945E-04	    0.000000E+00	    0.000000E+00	    0.000000E+00	    2.008711E+07	    0.000000E+00	    0.000000E+00	   -1.000000E+00	
   -1.214173E-02	    4.483582E-04	    0.000000E+00	    0.000000E+00	    0.000000E+00	    8.596322E+06	    0.000000E+00	    0.000000E+00	   -1.000000E+00	
   -1.213139E-02	    6.721802E-04	    0.000000E+00	    0.000000E+00	    0.000000E+00	    3.825127E+06	    0.000000E+00	    0.000000E+00	   -1.000000E+00	
   -1.210998E-02	    9.853662E-04	    0.000000E+00	    0.000000E+00	    0.000000E+00	    1.780320E+06	    0.000000E+00	    0.000000E+00	   -1.000000E+00	
   -1.206803E-02	    1.409021E-03	    0.000000E+00	    0.000000E+00	    0.000000E+00	    8.708866E+05	    0.000000E+00	    0.000000E+00	   -1.000000E+00	
   -1.199061E-02	    1.961617E-03	    0.000000E+00	    0.000000E+00	    0.000000E+00	    4.494715E+05	    0.000000E+00	    0.000000E+00	   -1.000000E+00	
   -1.185642E-02	    2.654785E-03	    0.000000E+00	    0.000000E+00	    0.000000E+00	    2.454938E+05	    0.000000E+00	    0.000000E+00	   -1.000000E+00	
   -1.163842E-02	    3.488546E-03	    0.000000E+00	    0.000000E+00	    0.000000E+00	    1.422371E+05	    0.000000E+00	    0.000000E+00	   -1.000000E+00	
   -1.130688E-02	    4.447146E-03	    0.000000E+00	    0.000000E+00	    0.000000E+00	    8.757327E+04	    0.000000E+00	    0.000000E+00	   -1.000000E+00	
   -1.083530E-02	    5.497181E-03	    0.000000E+00	    0.000000E+00	    0.000000E+00	    5.734680E+04	    0.000000E+00	    0.000000E+00	   -1.000000E+00	
   -1.020774E-02	    6.589752E-03	    0.000000E+00	    0.000000E+00	    0.000000E+00	    3.993156E+04	    0.000000E+00	    0.000000E+00	   -1.000000E+00	
   -9.425261E-03	    7.667289E-03	    0.000000E+00	    0.000000E+00	    0.000000E+00	    2.951429E+04	    0.000000E+00	    0.000000E+00	   -1.000000E+00	
   -8.508335E-03	    8.673589E-03	    0.000000E+00	    0.000000E+00	    0.000000E+00	    2.307611E+04	    0.000000E+00	    0.000000E+00	   -1.000000E+00	
   -7.493818E-03	    9.563768E-03	    0.000000E+00	    0.000000E+00	    0.000000E+00	    1.898973E+04	    0.000000E+00	    0.000000E+00	   -1.000000E+00	
   -6.427548E-03	    1.031066E-02	    0.000000E+00	    0.000000E+00	    0.000000E+00	    1.634504E+04	    0.000000E+00	    0.000000E+00	   -1.000000E+00	
   -5.355622E-03	    1.090598E-02	    0.000000E+00	    0.000000E+00	    0.000000E+00	    1.461417E+04	    0.000000E+00	    0.000000E+00	   -1.000000E+00	
   -4.317393E-03	    1.135708E-02	    0.000000E+00	    0.000000E+00	    0.000000E+00	    1.347970E+04	    0.000000E+00	    0.000000E+00	   -1.000000E+00	
   -3.341756E-03	    1.168143E-02	    0.000000E+00	    0.000000E+00	    0.000000E+00	    1.274385E+04	    0.000000E+00	    0.000000E+00	   -1.000000E+00	
   -2.446582E-03	    1.190115E-02	    0.000000E+00	    0.000000E+00	    0.000000E+00	    1.227915E+04	    0.000000E+00	    0.000000E+00	   -1.000000E+00	
   -1.640223E-03	    1.203880E-02	    0.000000E+00	    0.000000E+00	    0.000000E+00	    1.200088E+04	    0.000000E+00	    0.000000E+00	   -1.000000E+00	
   -9.238788E-04	    1.211485E-02	    0.000000E+00	    0.000000E+00	    0.000000E+00	    1.185119E+04	    0.000000E+00	    0.000000E+00	   -1.000000E+00	
   -2.939868E-04	    1.214647E-02	    0.000000E+00	    0.000000E+00	    0.000000E+00	    1.178978E+04	    0.000000E+00	    0.000000E+00	   -1.000000E+00	
    2.939868E-04	    1.214647E-02	    0.000000E+00	    0.000000E+00	    0.000000E+00	    1.178978E+04	    0.000000E+00	    0.000000E+00	   -1.000000E+00	
    9.238788E-04	    1.211485E-02	    0.000000E+00	    0.000000E+00	    0.000000E+00	    1.185119E+04	    0.000000E+00	    0.000000E+00	   -1.000000E+00	
    1.640223E-03	    1.203880E-02	    0.000000E+00	    0.000000E+00	    0.000000E+00	    1.200088E+04	    0.000000E+00	    0.000000E+00	   -1.000000E+00	
    2.446582E-03	    1.190115E-02	    0.000000E+00	    0.000000E+00	    0.000000E+00	    1.227915E+04	    0.000000E+00	    0.000000E+00	   -1.000000E+00	
    3.341756E-03	    1.168143E-02	    0.000000E+00	    0.000000E+00	    0.000000E+00	    1.274385E+04	    0.000000E+00	    0.000000E+00	   -1.000000E+00	
    4.317393E-03	    1.135708E-02	    0.000000E+00	    0.000000E+00	    0.000000E+00	    1.347970E+04	    0.000000E+00	    0.000000E+00	   -1.000000E+00	
    5.355622E-03	    1.090598E-02	    0.000000E+00	    0.000000E+00	    0.000000E+00	    1.461417E+04	    0.000000E+00	    0.000000E+00	   -1.000000E+00	
    6.427548E-03	    1.031066E-02	    0.000000E+00	    0.000000E+00	    0.000000E+00	    1.634504E+04	    0.000000E+00	    0.000000E+00	   -1.000000E+00	
    7.493818E-03	    9.563768E-03	    0.000000E+00	    0.000000E+00	    0.000000E+00	    1.898973E+04	    0.000000E+00	    0.000000E+00	   -1.000000E+00	
    8.508335E-03	    8.673589E-03	    0.000000E+00	    0.000000E+00	    0.000000E+00	    2.307611E+04	    0.000000E+00	    0.000000E+00	   -1.000000E+00	
    9.425261E-03	    7.667289E-03	    0.000000E+00	    0.000000E+00	    0.000000E+00	    2.951429E+04	    0.000000E+00	    0.000000E+00	   -1.000000E+00	
    1.020774E-02	    6.589752E-03	    0.000000E+00	    0.000000E+00	    0.000000E+00	    3.993156E+04	    0.000000E+00	    0.000000E+00	   -1.000000E+00	
    1.083530E-02	    5.497181E-03	    0.000000E+00	    0.000000E+00	    0.000000E+00	    5.734680E+04	    0.000000E+00	    0.000000E+00	   -1.000000E+00	
    1.130688E-02	    4.447146E-03	    0.000000E+00	    0.000000E+00	    0.000000E+00	    8.757327E+04	    0.000000E+00	    0.000000E+00	   -1.000000E+00	
    1.163842E-02	    3.488546E-03	    0.000000E+00	    0.000000E+00	    0.000000E+00	    1.422371E+05	    0.000000E+00	    0.000000E+00	   -1.000000E+00	
    1.185642E-02	    2.654785E-03	    0.000000E+00	    0.000000E+00	    0.000000E+00	    2.454938E+05	    0.000000E+00	    0.000000E+00	   -1.000000E+00	
    1.199061E-02	    1.961617E-03	    0.000000E+00	    0.000000E+00	    0.000000E+00	    4.494715E+05	    0.000000E+00	    0.000000E+00	   -1.000000E+00	
    1.206803E-02	    1.409021E-03	    0.000000E+00	    0.000000E+00	    0.000000E+00	    8.708866E+05	    0.000000E+00	    0.000000E+00	   -1.000000E+00	
    1.210998E-02	    9.853662E-04	    0.000000E+00	    0.000000E+00	    0.000000E+00	    1.780320E+06	    0.000000E+00	    0.000000E+00	   -1.000000E+00	
    1.213139E-02	    6.721802E-04	    0.000000E+00	    0.000000E+00	    0.000000E+00	    3.825127E+06	    0.000000E+00	    0.000000E+00	   -1.000000E+00	
    1.214173E-02	    4.483582E-04	    0.000000E+00	    0.000000E+00	    0.000000E+00	    8.596322E+06	    0.000000E+00	    0.000000E+00	   -1.000000E+00	
    1.214646E-02	    2.932945E-04	    0.000000E+00	    0.000000E+00	    0.000000E+00	    2.008711E+07	    0.000000E+00	    0.000000E+00	   -1.000000E+00	
    1.214853E-02	    1.888273E-04	    0.000000E+00	    0.000000E+00	    0.000000E+00	    4.845851E+07	    0.000000E+00	    0.000000E+00	   -1.000000E+00	
    1.214941E-02	    1.201401E-04	    0.000000E+00	    0.000000E+00	    0.000000E+00	    1.197037E+08	    0.000000E+00	    0.000000E+00	   -1.000000E+00	
    1.214976E-02	    7.588291E-05	    0.000000E+00	    0.000000E+00	    0.000000E+00	    3.000436E+08	    0.000000E+00	    0.000000E+00	   -1.000000E+00	
    1.214985E-02	    6.023331E-05	    0.000000E+00	    0.000000E+00	    0.000000E+00	    3.000436E+08	    0.000000E+00	    0.000000E+00	   -1.000000E+00	
   -1.214944E-02	    6.022988E-05	    0.000000E+00	    0.000000E+00	    0.000000E+00	    3.000436E+08	    0.000000E+00	    0.000000E+00	   -1.000000E+00	
   -1.214925E-02	    7.587793E-05	    5.163603E-07	    1.796184E-05	    3.698208E-11	    3.000436E+08	    0.000000E+00	    1.210475E+03	   -1.000000E+00	
   -1.214859E-02	    1.201292E-04	    8.175066E-07	    5.734211E-05	    9.434155E-11	    1.197037E+08	    0.000000E+00	    4.918347E+03	   -1.000000E+00	
   -1.214725E-02	    1.888030E-04	    1.284872E-06	    1.079797E-04	    3.344511E-10	    4.845851E+07	    0.000000E+00	    7.059313E+03	   -1.000000E+00	
   -1.214447E-02	    2.932395E-04	    1.995659E-06	    1.786722E-04	    9.158849E-10	    2.008711E+07	    0.000000E+00	    8.010684E+03	   -1.000000E+00	
   -1.213868E-02	    4.482353E-04	    3.050624E-06	    2.798378E-04	    2.247392E-09	    8.596322E+06	    0.000000E+00	    8.407367E+03	   -1.000000E+00	
   -1.212683E-02	    6.719117E-04	    4.573220E-06	    4.235788E-04	    5.151894E-09	    3.825127E+06	    0.000000E+00	    8.568365E+03	   -1.000000E+00	
   -1.210330E-02	    9.847999E-04	    6.703412E-06	    6.231043E-04	    1.115812E-08	    1.780320E+06	    0.000000E+00	    8.625611E+03	   -1.000000E+00	
   -1.205851E-02	    1.407877E-03	    9.584383E-06	    8.914253E-04	    2.286562E-08	    8.708866E+05	    0.000000E+00	    8.629984E+03	   -1.000000E+00	
   -1.197745E-02	    1.959419E-03	    1.334117E-05	    1.239129E-03	    4.423319E-08	    4.494715E+05	    0.000000E+00	    8.598608E+03	   -1.000000E+00	
   -1.183882E-02	    2.650782E-03	    1.805197E-05	    1.672484E-03	    8.075486E-08	    2.454938E+05	    0.000000E+00	    8.546094E+03	   -1.000000E+00	
   -1.161572E-02	    3.481663E-03	    2.371585E-05	    2.189789E-03	    1.388076E-07	    1.422371E+05	    0.000000E+00	    8.476644E+03	   -1.000000E+00	
   -1.127879E-02	    4.435994E-03	    3.022451E-05	    2.779289E-03	    2.243093E-07	    8.757327E+04	    0.000000E+00	    8.393635E+03	   -1.000000E+00	
   -1.080204E-02	    5.480181E-03	    3.734999E-05	    3.420513E-03	    3.409619E-07	    5.734680E+04	    0.000000E+00	    8.310599E+03	   -1.000000E+00	
   -1.017021E-02	    6.565368E-03	    4.475970E-05	    4.085120E-03	    4.882209E-07	    3.993156E+04	    0.000000E+00	    8.238735E+03	   -1.000000E+00	
   -9.384960E-03	    7.634329E-03	    5.206303E-05	    4.732532E-03	    6.576640E-07	    2.951429E+04	    0.000000E+00	    8.157175E+03	   -1.000000E+00	
   -8.467203E-03	    8.631459E-03	    5.887957E-05	    5.335871E-03	    8.390696E-07	    2.307611E+04	    0.000000E+00	    8.093309E+03	   -1.000000E+00	
   -7.453892E-03	    9.512594E-03	    6.490633E-05	    5.872979E-03	    1.019961E-06	    1.898973E+04	    0.000000E+00	    8.055843E+03	   -1.000000E+00	
   -6.390644E-03	    1.025122E-02	    6.996068E-05	    6.322516E-03	    1.185471E-06	    1.634504E+04	    0.000000E+00	    8.025409E+03	   -1.000000E+00	
   -5.323108E-03	    1.083952E-02	    7.398784E-05	    6.670887E-03	    1.322277E-06	    1.461417E+04	    0.000000E+00	    7.979170E+03	   -1.000000E+00	
   -4.290105E-03	    1.128503E-02	    7.703849E-05	    6.933938E-03	    1.430769E-06	    1.347970E+04	    0.000000E+00	    7.944869E+03	   -1.000000E+00	
   -3.320035E-03	    1.160523E-02	    7.923151E-05	    7.123315E-03	    1.511680E-06	    1.274385E+04	    0.000000E+00	    7.922177E+03	   -1.000000E+00	
   -2.430383E-03	    1.182207E-02	    8.071687E-05	    7.251804E-03	    1.567924E-06	    1.227915E+04	    0.000000E+00	    7.907853E+03	   -1.000000E+00	
   -1.629238E-03	    1.195790E-02	    8.164735E-05	    7.332341E-03	    1.603736E-06	    1.200088E+04	    0.000000E+00	    7.899190E+03	   -1.000000E+00	
   -9.176524E-04	    1.203292E-02	    8.216136E-05	    7.376736E-03	    1.623661E-06	    1.185119E+04	    0.000000E+00	    7.894265E+03	   -1.000000E+00	
   -2.920003E-04	    1.206412E-02	    8.237507E-05	    7.394963E-03	    1.631880E-06	    1.178978E+04	    0.000000E+00	    7.891736E+03	   -1.000000E+00	
    2.920003E-04	    1.206412E-02	    8.237507E-05	    7.394962E-03	    1.631879E-06	    1.178978E+04	    0.000000E+00	    7.891733E+03	   -1.000000E+00	
    9.176524E-04	    1.203292E-02	    8.216136E-05	    7.376732E-03	    1.623660E-06	    1.185119E+04	    0.000000E+00	    7.894256E+03	   -1.000000E+00	
    1.629238E-03	    1.195790E-02	    8.164735E-05	    7.332335E-03	    1.603733E-06	    1.200088E+04	    0.000000E+00	    7.899176E+03	   -1.000000E+00	
    2.430383E-03	    1.182207E-02	    8.071687E-05	    7.251796E-03	    1.567920E-06	    1.227915E+04	    0.000000E+00	    7.907834E+03	   -1.000000E+00	
    3.320035E-03	    1.160523E-02	    7.923151E-05	    7.123306E-03	    1.511676E-06	    1.274385E+04	    0.000000E+00	    7.922155E+03	   -1.000000E+00	
    4.290105E-03	    1.128503E-02	    7.703849E-05	    6.933927E-03	    1.430764E-06	    1.347970E+04	    0.000000E+00	    7.944844E+03	   -1.000000E+00	
    5.323108E-03	    1.083952E-02	    7.398784E-05	    6.670876E-03	    1.322273E-06	    1.461417E+04	    0.000000E+00	    7.979143E+03	   -1.000000E+00	
    6.390644E-03	    1.025122E-02	    6.996068E-05	    6.322504E-03	    1.185466E-06	    1.634504E+04	    0.000000E+00	    8.025379E+03	   -1.000000E+00	
    7.453892E-03	    9.512594E-03	    6.490633E-05	    5.872968E-03	    1.019957E-06	    1.898973E+04	    0.000000E+00	    8.055812E+03	   -1.000000E+00	
    8.467203E-03	    8.631459E-03	    5.887957E-05	    5.335861E-03	    8.390660E-07	    2.307611E+04	    0.000000E+00	    8.093275E+03	   -1.000000E+00	
    9.384960E-03	    7.634329E-03	    5.206303E-05	    4.732522E-03	    6.576612E-07	    2.951429E+04	    0.000000E+00	    8.157141E+03	   -1.000000E+00	
    1.017021E-02	    6.565368E-03	    4.475970E-05	    4.085111E-03	    4.882187E-07	    3.993156E+04	    0.000000E+00	    8.238699E+03	   -1.000000E+00	
    1.080204E-02	    5.480181E-03	    3.734999E-05	    3.420506E-03	    3.409604E-07	    5.734680E+04	    0.000000E+00	    8.310564E+03	   -1.000000E+00	
    1.127879E-02	    4.435994E-03	    3.022451E-05	    2.779284E-03	    2.243084E-07	    8.757327E+04	    0.000000E+00	    8.393602E+03	   -1.000000E+00	
    1.161572E-02	    3.481663E-03	    2.371585E-05	    2.189786E-03	    1.388071E-07	    1.422371E+05	    0.000000E+00	    8.476618E+03	   -1.000000E+00	
    1.183882E-02	    2.650782E-03	    1.805197E-05	    1.672483E-03	    8.075472E-08	    2.454938E+05	    0.000000E+00	    8.546079E+03	   -1.000000E+00	
    1.197745E-02	    1.959419E-03	    1.334117E-05	    1.239130E-03	    4.423321E-08	    4.494715E+05	    0.000000E+00	    8.598613E+03	   -1.000000E+00	
    1.205851E-02	    1.407877E-03	    9.584383E-06	    8.914269E-04	    2.286570E-08	    8.708866E+05	    0.000000E+00	    8.630015E+03	   -1.000000E+00	
    1.210330E-02	    9.847999E-04	    6.703412E-06	    6.231065E-04	    1.115820E-08	    1.780320E+06	    0.000000E+00	    8.625672E+03	   -1.000000E+00	
    1.212683E-02	    6.719117E-04	    4.573220E-06	    4.235810E-04	    5.151948E-09	    3.825127E+06	    0.000000E+00	    8.568452E+03	   -1.000000E+00	
    1.213868E-02	    4.482353E-04	    3.050624E-06	    2.798396E-04	    2.247421E-09	    8.596322E+06	    0.000000E+00	    8.407475E+03	   -1.000000E+00	
    1.214447E-02	    2.932395E-04	    1.995659E-06	    1.786735E-04	    9.158985E-10	    2.008711E+07	    0.000000E+00	    8.010802E+03	   -1.000000E+00	
    1.214725E-02	    1.888030E-04	    1.284872E-06	    1.079806E-04	    3.344566E-10	    4.845851E+07	    0.000000E+00	    7.059427E+03	   -1.000000E+00	
    1.214859E-02	    1.201292E-04	    8.175066E-07	    5.734260E-05	    9.434317E-11	    1.197037E+08	    0.000000E+00	    4.918431E+03	   -1.000000E+00	
    1.214925E-02	    7.587793E-05	    5.163603E-07	    1.796200E-05	    3.698277E-11	    3.000436E+08	    0.000000E+00	    1.210497E+03	   -1.000000E+00	
    1.214944E-02	    6.022988E-05	    0.000000E+00	    0.000000E+00	    0.000000E+00	    3.000436E+08	    0.000000E+00	    0.000000E+00	   -1.000000E+00	
   -1.214849E-02	    6.021126E-05	    0.000000E+00	    0.000000E+00	    0.000000E+00	    3.267227E+05	    0.000000E+00	    0.000000E+00	   -1.000000E+00	
   -1.214805E-02	    7.585293E-05	    1.711289E-06	    5.951013E-05	    6.797299E-10	    3.267227E+05	    0.000000E+00	    1.220488E+03	   -1.000000E+00	
   -1.214670E-02	    1.200827E-04	    2.709252E-06	    1.899946E-04	    1.293313E-11	    1.667848E+07	    0.000000E+00	    4.920273E+03	   -1.000000E+00	
   -1.214428E-02	    1.887132E-04	    4.257933E-06	    3.577477E-04	    4.462522E-11	    6.754295E+06	    0.000000E+00	    7.057047E+03	   -1.000000E+00	
   -1.213985E-02	    2.930603E-04	    6.612957E-06	    5.918722E-04	    1.253410E-10	    2.800221E+06	    0.000000E+00	    8.005111E+03	   -1.000000E+00	
   -1.213163E-02	    4.478715E-04	    1.010775E-05	    9.267823E-04	    3.207867E-10	    1.198628E+06	    0.000000E+00	    8.398043E+03	   -1.000000E+00	
   -1.211628E-02	    6.711719E-04	    1.515043E-05	    1.402360E-03	    7.858345E-10	    5.335320E+05	    0.000000E+00	    8.554078E+03	   -1.000000E+00	
   -1.208787E-02	    9.833172E-04	    2.220296E-05	    2.061958E-03	    1.876870E-09	    2.484480E+05	    0.000000E+00	    8.604565E+03	   -1.000000E+00	
   -1.203655E-02	    1.404988E-03	    3.173659E-05	    2.947976E-03	    4.372466E-09	    1.217550E+05	    0.000000E+00	    8.599890E+03	   -1.000000E+00	
   -1.194711E-02	    1.954004E-03	    4.416061E-05	    4.094377E-03	    9.408921E-09	    6.556374E+04	    0.000000E+00	    8.556752E+03	   -1.000000E+00	
   -1.179828E-02	    2.641095E-03	    5.972717E-05	    5.520386E-03	    2.038126E-08	    3.584584E+04	    0.000000E+00	    8.489544E+03	   -1.000000E+00	
   -1.156354E-02	    3.465221E-03	    7.842471E-05	    7.218524E-03	    4.193594E-08	    2.079405E+04	    0.000000E+00	    8.402413E+03	   -1.000000E+00	
   -1.121432E-02	    4.409616E-03	    9.988640E-05	    9.148057E-03	    8.090910E-08	    1.282130E+04	    0.000000E+00	    8.298858E+03	   -1.000000E+00	
   -1.072586E-02	    5.440273E-03	    1.233518E-04	    1.124005E-02	    1.454402E-07	    8.410403E+03	    0.000000E+00	    8.192742E+03	   -1.000000E+00	
   -1.008440E-02	    6.508469E-03	    1.477200E-04	    1.340085E-02	    2.432374E-07	    5.867949E+03	    0.000000E+00	    8.095756E+03	   -1.000000E+00	
   -9.293008E-03	    7.557782E-03	    1.717052E-04	    1.549776E-02	    3.726596E-07	    4.346778E+03	    0.000000E+00	    7.987021E+03	   -1.000000E+00	
   -8.373528E-03	    8.533993E-03	    1.940621E-04	    1.744509E-02	    5.312751E-07	    3.406683E+03	    0.000000E+00	    7.894861E+03	   -1.000000E+00	
   -7.363111E-03	    9.394568E-03	    2.138052E-04	    1.917353E-02	    7.095507E-07	    2.810183E+03	    0.000000E+00	    7.829163E+03	   -1.000000E+00	
   -6.306848E-03	    1.011447E-02	    2.303456E-04	    2.061610E-02	    8.869564E-07	    2.424320E+03	    0.000000E+00	    7.772189E+03	   -1.000000E+00	
   -5.249360E-03	    1.068687E-02	    2.435134E-04	    2.173004E-02	    1.036455E-06	    2.171897E+03	    0.000000E+00	    7.702421E+03	   -1.000000E+00	
   -4.228261E-03	    1.111978E-02	    2.534817E-04	    2.256951E-02	    1.160992E-06	    2.006536E+03	    0.000000E+00	    7.649169E+03	   -1.000000E+00	
   -3.270837E-03	    1.143062E-02	    2.606442E-04	    2.317304E-02	    1.257598E-06	    1.899328E+03	    0.000000E+00	    7.612041E+03	   -1.000000E+00	
   -2.393705E-03	    1.164097E-02	    2.654937E-04	    2.358213E-02	    1.326647E-06	    1.831650E+03	    0.000000E+00	    7.587506E+03	   -1.000000E+00	
   -1.604373E-03	    1.177267E-02	    2.685310E-04	    2.383838E-02	    1.371428E-06	    1.791133E+03	    0.000000E+00	    7.572265E+03	   -1.000000E+00	
   -9.035607E-04	    1.184540E-02	    2.702086E-04	    2.397956E-02	    1.396628E-06	    1.769342E+03	    0.000000E+00	    7.563657E+03	   -1.000000E+00	
   -2.875049E-04	    1.187564E-02	    2.709061E-04	    2.403750E-02	    1.407079E-06	    1.760404E+03	    0.000000E+00	    7.559617E+03	   -1.000000E+00	
    2.875049E-04	    1.187564E-02	    2.709061E-04	    2.403749E-02	    1.407078E-06	    1.760404E+03	    0.000000E+00	    7.559614E+03	   -1.000000E+00	
    9.035607E-04	    1.184540E-02	    2.702086E-04	    2.397955E-02	    1.396625E-06	    1.769342E+03	    0.000000E+00	    7.563649E+03	   -1.000000E+00	
    1.604373E-03	    1.177267E-02	    2.685310E-04	    2.383836E-02	    1.371423E-06	    1.791133E+03	    0.000000E+00	    7.572252E+03	   -1.000000E+00	
    2.393705E-03	    1.164097E-02	    2.654937E-04	    2.358210E-02	    1.326640E-06	    1.831650E+03	    0.000000E+00	    7.587489E+03	   -1.000000E+00	
    3.270837E-03	    1.143062E-02	    2.606442E-04	    2.317301E-02	    1.257591E-06	    1.899328E+03	    0.000000E+00	    7.612019E+03	   -1.000000E+00	
    4.228261E-03	    1.111978E-02	    2.534817E-04	    2.256948E-02	    1.160985E-06	    2.006536E+03	    0.000000E+00	    7.649145E+03	   -1.000000E+00	
    5.249360E-03	    1.068687E-02	    2.435134E-04	    2.173000E-02	    1.036448E-06	    2.171897E+03	    0.000000E+00	    7.702394E+03	   -1.000000E+00	
    6.306848E-03	    1.011447E-02	    2.303456E-04	    2.061606E-02	    8.869503E-07	    2.424320E+03	    0.000000E+00	    7.772160E+03	   -1.000000E+00	
    7.363111E-03	    9.394568E-03	    2.138052E-04	    1.917350E-02	    7.095456E-07	    2.810183E+03	    0.000000E+00	    7.829132E+03	   -1.000000E+00	
    8.373528E-03	    8.533993E-03	    1.940621E-04	    1.744506E-02	    5.312711E-07	    3.406683E+03	    0.000000E+00	    7.894828E+03	   -1.000000E+00	
    9.293008E-03	    7.557782E-03	    1.717052E-04	    1.549772E-02	    3.726567E-07	    4.346778E+03	    0.000000E+00	    7.986987E+03	   -1.000000E+00	
    1.008440E-02	    6.508469E-03	    1.477200E-04	    1.340082E-02	    2.432355E-07	    5.867949E+03	    0.000000E+00	    8.095721E+03	   -1.000000E+00	
    1.072586E-02	    5.440273E-03	    1.233518E-04	    1.124003E-02	    1.454391E-07	    8.410403E+03	    0.000000E+00	    8.192706E+03	   -1.000000E+00	
    1.121432E-02	    4.409616E-03	    9.988640E-05	    9.148039E-03	    8.090853E-08	    1.282130E+04	    0.000000E+00	    8.298825E+03	   -1.000000E+00	
    1.156354E-02	    3.465221E-03	    7.842471E-05	    7.218513E-03	    4.193571E-08	    2.079405E+04	    0.000000E+00	    8.402386E+03	   -1.000000E+00	
    1.179828E-02	    2.641095E-03	    5.972717E-05	    5.520382E-03	    2.038121E-08	    3.584584E+04	    0.000000E+00	    8.489529E+03	   -1.000000E+00	
    1.194711E-02	    1.954004E-03	    4.416061E-05	    4.094378E-03	    9.408940E-09	    6.556374E+04	    0.000000E+00	    8.556757E+03	   -1.000000E+00	
    1.203655E-02	    1.404988E-03	    3.173659E-05	    2.947981E-03	    4.372502E-09	    1.217550E+05	    0.000000E+00	    8.599921E+03	   -1.000000E+00	
    1.208787E-02	    9.833172E-04	    2.220296E-05	    2.061966E-03	    1.876898E-09	    2.484480E+05	    0.000000E+00	    8.604626E+03	   -1.000000E+00	
    1.211628E-02	    6.711719E-04	    1.515043E-05	    1.402367E-03	    7.858508E-10	    5.335320E+05	    0.000000E+00	    8.554165E+03	   -1.000000E+00	
    1.213163E-02	    4.478715E-04	    1.010775E-05	    9.267883E-04	    3.207944E-10	    1.198628E+06	    0.000000E+00	    8.398151E+03	   -1.000000E+00	
    1.213985E-02	    2.930603E-04	    6.612957E-06	    5.918766E-04	    1.253440E-10	    2.800221E+06	    0.000000E+00	    8.005229E+03	   -1.000000E+00	
    1.214428E-02	    1.887132E-04	    4.257933E-06	    3.577505E-04	    4.462623E-11	    6.754295E+06	    0.000000E+00	    7.057161E+03	   -1.000000E+00	
    1.214670E-02	    1.200827E-04	    2.709252E-06	    1.899962E-04	    1.293339E-11	    1.667848E+07	    0.000000E+00	    4.920357E+03	   -1.000000E+00	
    1.214805E-02	    7.585293E-05	    1.711289E-06	    5.951065E-05	    6.797430E-10	    3.267227E+05	    0.000000E+00	    1.220510E+03	   -1.000000E+00	
    1.214849E-02	    6.021126E-05	    0.000000E+00	    0.000000E+00	    0.000000E+00	    3.267227E+05	    0.000000E+00	    0.000000E+00	   -1.000000E+00	
   -1.214725E-02	    6.016430E-05	    0.000000E+00	    0.000000E+00	    0.000000E+00	    3.267981E+05	    0.000000E+00	    0.000000E+00	   -1.000000E+00	
   -1.214649E-02	    7.579176E-05	    3.275811E-06	    1.138691E-04	    1.549539E-09	    3.267981E+05	    0.000000E+00	    1.251479E+03	   -1.000000E+00	
   -1.214422E-02	    1.199769E-04	    5.185953E-06	    3.635668E-04	    8.431599E-12	    4.398118E+06	    0.000000E+00	    4.930009E+03	   -1.000000E+00	
   -1.214039E-02	    1.885249E-04	    8.149908E-06	    6.845152E-04	    2.159787E-11	    1.782967E+06	    0.000000E+00	    7.057123E+03	   -1.000000E+00	
   -1.213382E-02	    2.927161E-04	    1.265643E-05	    1.132307E-03	    9.129043E-11	    7.393483E+05	    0.000000E+00	    7.999191E+03	   -1.000000E+00	
   -1.212242E-02	    4.472280E-04	    1.934251E-05	    1.772573E-03	    3.595182E-10	    3.165764E+05	    0.000000E+00	    8.386533E+03	   -1.000000E+00	
   -1.210249E-02	    6.699539E-04	    2.898686E-05	    2.681173E-03	    1.341271E-09	    1.409781E+05	    0.000000E+00	    8.535794E+03	   -1.000000E+00	
   -1.206773E-02	    9.810136E-04	    4.246902E-05	    3.940202E-03	    4.697499E-09	    6.568941E+04	    0.000000E+00	    8.577336E+03	   -1.000000E+00	
   -1.200792E-02	    1.400696E-03	    6.068293E-05	    5.629303E-03	    1.505835E-08	    3.220566E+04	    0.000000E+00	    8.560817E+03	   -1.000000E+00	
   -1.190762E-02	    1.946226E-03	    8.439946E-05	    7.811141E-03	    4.202731E-08	    1.708455E+04	    0.000000E+00	    8.502264E+03	   -1.000000E+00	
   -1.174564E-02	    2.627529E-03	    1.140839E-04	    1.051931E-02	    1.105531E-07	    9.356601E+03	    0.000000E+00	    8.415527E+03	   -1.000000E+00	
   -1.149594E-02	    3.442628E-03	    1.496936E-04	    1.373565E-02	    2.627490E-07	    5.440722E+03	    0.000000E+00	    8.303609E+03	   -1.000000E+00	
   -1.113102E-02	    4.373897E-03	    1.905070E-04	    1.737836E-02	    5.626185E-07	    3.366630E+03	    0.000000E+00	    8.167274E+03	   -1.000000E+00	
   -1.062775E-02	    5.386854E-03	    2.350572E-04	    2.131270E-02	    1.090020E-06	    2.220257E+03	    0.000000E+00	    8.015169E+03	   -1.000000E+00	
   -9.974232E-03	    6.433006E-03	    2.812402E-04	    2.535881E-02	    1.924477E-06	    1.561088E+03	    0.000000E+00	    7.851799E+03	   -1.000000E+00	
   -9.175330E-03	    7.457019E-03	    3.266175E-04	    2.926390E-02	    3.055507E-06	    1.168291E+03	    0.000000E+00	    7.651214E+03	   -1.000000E+00	
   -8.253992E-03	    8.406465E-03	    3.688434E-04	    3.286897E-02	    4.466025E-06	    9.268729E+02	    0.000000E+00	    7.444182E+03	   -1.000000E+00	
   -7.247567E-03	    9.240878E-03	    4.060757E-04	    3.604903E-02	    6.068283E-06	    7.746610E+02	    0.000000E+00	    7.250231E+03	   -1.000000E+00	
   -6.200423E-03	    9.937048E-03	    4.372278E-04	    3.868540E-02	    7.666962E-06	    6.767838E+02	    0.000000E+00	    7.068473E+03	   -1.000000E+00	
   -5.155856E-03	    1.048940E-02	    4.620016E-04	    4.070466E-02	    9.003078E-06	    6.130296E+02	    0.000000E+00	    6.894587E+03	   -1.000000E+00	
   -4.149951E-03	    1.090644E-02	    4.807404E-04	    4.221797E-02	    1.011434E-05	    5.714219E+02	    0.000000E+00	    6.758927E+03	   -1.000000E+00	
   -3.208598E-03	    1.120551E-02	    4.941964E-04	    4.330100E-02	    1.097498E-05	    5.445214E+02	    0.000000E+00	    6.660286E+03	   -1.000000E+00	
   -2.347335E-03	    1.140773E-02	    5.033034E-04	    4.403259E-02	    1.158916E-05	    5.275717E+02	    0.000000E+00	    6.593032E+03	   -1.000000E+00	
   -1.572948E-03	    1.153426E-02	    5.090054E-04	    4.448976E-02	    1.198701E-05	    5.174359E+02	    0.000000E+00	    6.550642E+03	   -1.000000E+00	
   -8.857557E-04	    1.160411E-02	    5.121544E-04	    4.474126E-02	    1.221071E-05	    5.119874E+02	    0.000000E+00	    6.526973E+03	   -1.000000E+00	
   -2.818253E-04	    1.163315E-02	    5.134634E-04	    4.484435E-02	    1.230345E-05	    5.097534E+02	    0.000000E+00	    6.516791E+03	   -1.000000E+00	
    2.818253E-04	    1.163315E-02	    5.134634E-04	    4.484435E-02	    1.230343E-05	    5.097534E+02	    0.000000E+00	    6.516789E+03	   -1.000000E+00	
    8.857557E-04	    1.160411E-02	    5.121544E-04	    4.474124E-02	    1.221068E-05	    5.119873E+02	    0.000000E+00	    6.526967E+03	   -1.000000E+00	
    1.572948E-03	    1.153426E-02	    5.090054E-04	    4.448972E-02	    1.198696E-05	    5.174358E+02	    0.000000E+00	    6.550632E+03	   -1.000000E+00	
    2.347335E-03	    1.140773E-02	    5.033034E-04	    4.403254E-02	    1.158910E-05	    5.275716E+02	    0.000000E+00	    6.593019E+03	   -1.000000E+00	
    3.208598E-03	    1.120551E-02	    4.941964E-04	    4.330094E-02	    1.097491E-05	    5.445213E+02	    0.000000E+00	    6.660270E+03	   -1.000000E+00	
    4.149951E-03	    1.090644E-02	    4.807404E-04	    4.221791E-02	    1.011427E-05	    5.714218E+02	    0.000000E+00	    6.758908E+03	   -1.000000E+00	
    5.155856E-03	    1.048940E-02	    4.620016E-04	    4.070459E-02	    9.003015E-06	    6.130295E+02	    0.000000E+00	    6.894565E+03	   -1.000000E+00	
    6.200423E-03	    9.937048E-03	    4.372278E-04	    3.868532E-02	    7.666906E-06	    6.767837E+02	    0.000000E+00	    7.068449E+03	   -1.000000E+00	
    7.247567E-03	    9.240878E-03	    4.060757E-04	    3.604896E-02	    6.068235E-06	    7.746609E+02	    0.000000E+00	    7.250203E+03	   -1.000000E+00	
    8.253992E-03	    8.406465E-03	    3.688434E-04	    3.286890E-02	    4.465988E-06	    9.268728E+02	    0.000000E+00	    7.444152E+03	   -1.000000E+00	
    9.175330E-03	    7.457019E-03	    3.266175E-04	    2.926384E-02	    3.055481E-06	    1.168291E+03	    0.000000E+00	    7.651181E+03	   -1.000000E+00	
    9.974232E-03	    6.433006E-03	    2.812402E-04	    2.535875E-02	    1.924460E-06	    1.561088E+03	    0.000000E+00	    7.851764E+03	   -1.000000E+00	