Title="Field"
Variables="X","Y","DN","W","K","Omega","T","S","phi"
Zone I=52 J=52 F=POINT
   -1.214864E-02	    6.022430E-05	    0.000000E+00	    0.000000E+00	    0.000000E+00	    3.039699E+08	    0.000000E+00	    0.000000E+00	   -1.000000E+00	
   -1.214840E-02	    7.587059E-05	    0.000000E+00	    0.000000E+00	    0.000000E+00	    3.039699E+08	    0.000000E+00	    0.000000E+00	   -1.000000E+00	
   -1.214760E-02	    1.201162E-04	    0.000000E+00	    0.000000E+00	    0.000000E+00	    1.212789E+08	    0.000000E+00	    0.000000E+00	   -1.000000E+00	
   -1.214604E-02	    1.887791E-04	    0.000000E+00	    0.000000E+00	    0.000000E+00	    4.910173E+07	    0.000000E+00	    0.000000E+00	   -1.000000E+00	
   -1.214292E-02	    2.931943E-04	    0.000000E+00	    0.000000E+00	    0.000000E+00	    2.035723E+07	    0.000000E+00	    0.000000E+00	   -1.000000E+00	
   -1.213664E-02	    4.481479E-04	    0.000000E+00	    0.000000E+00	    0.000000E+00	    8.714141E+06	    0.000000E+00	    0.000000E+00	   -1.000000E+00	
   -1.212408E-02	    6.717413E-04	    0.000000E+00	    0.000000E+00	    0.000000E+00	    3.878978E+06	    0.000000E+00	    0.000000E+00	   -1.000000E+00	
   -1.209956E-02	    9.844690E-04	    0.000000E+00	    0.000000E+00	    0.000000E+00	    1.806312E+06	    0.000000E+00	    0.000000E+00	   -1.000000E+00	
   -1.205344E-02	    1.407248E-03	    0.000000E+00	    0.000000E+00	    0.000000E+00	    8.842153E+05	    0.000000E+00	    0.000000E+00	   -1.000000E+00	
   -1.197068E-02	    1.958259E-03	    0.000000E+00	    0.000000E+00	    0.000000E+00	    4.567641E+05	    0.000000E+00	    0.000000E+00	   -1.000000E+00	
   -1.182997E-02	    2.648730E-03	    0.000000E+00	    0.000000E+00	    0.000000E+00	    2.497603E+05	    0.000000E+00	    0.000000E+00	   -1.000000E+00	
   -1.160451E-02	    3.478208E-03	    0.000000E+00	    0.000000E+00	    0.000000E+00	    1.449065E+05	    0.000000E+00	    0.000000E+00	   -1.000000E+00	
   -1.126508E-02	    4.430481E-03	    0.000000E+00	    0.000000E+00	    0.000000E+00	    8.935669E+04	    0.000000E+00	    0.000000E+00	   -1.000000E+00	
   -1.078595E-02	    5.471868E-03	    0.000000E+00	    0.000000E+00	    0.000000E+00	    5.861503E+04	    0.000000E+00	    0.000000E+00	   -1.000000E+00	
   -1.015216E-02	    6.553540E-03	    0.000000E+00	    0.000000E+00	    0.000000E+00	    4.088740E+04	    0.000000E+00	    0.000000E+00	   -1.000000E+00	
   -9.365674E-03	    7.618435E-03	    0.000000E+00	    0.000000E+00	    0.000000E+00	    3.027383E+04	    0.000000E+00	    0.000000E+00	   -1.000000E+00	
   -8.447590E-03	    8.611234E-03	    0.000000E+00	    0.000000E+00	    0.000000E+00	    2.370874E+04	    0.000000E+00	    0.000000E+00	   -1.000000E+00	
   -7.434906E-03	    9.488109E-03	    0.000000E+00	    0.000000E+00	    0.000000E+00	    1.953856E+04	    0.000000E+00	    0.000000E+00	   -1.000000E+00	
   -6.373131E-03	    1.022285E-02	    0.000000E+00	    0.000000E+00	    0.000000E+00	    1.683784E+04	    0.000000E+00	    0.000000E+00	   -1.000000E+00	
   -5.307700E-03	    1.080785E-02	    0.000000E+00	    0.000000E+00	    0.000000E+00	    1.506934E+04	    0.000000E+00	    0.000000E+00	   -1.000000E+00	
   -4.277187E-03	    1.125075E-02	    0.000000E+00	    0.000000E+00	    0.000000E+00	    1.390971E+04	    0.000000E+00	    0.000000E+00	   -1.000000E+00	
   -3.309760E-03	    1.156900E-02	    0.000000E+00	    0.000000E+00	    0.000000E+00	    1.315730E+04	    0.000000E+00	    0.000000E+00	   -1.000000E+00	
   -2.422723E-03	    1.178450E-02	    0.000000E+00	    0.000000E+00	    0.000000E+00	    1.268205E+04	    0.000000E+00	    0.000000E+00	   -1.000000E+00	
   -1.624046E-03	    1.191947E-02	    0.000000E+00	    0.000000E+00	    0.000000E+00	    1.239741E+04	    0.000000E+00	    0.000000E+00	   -1.000000E+00	
   -9.147098E-04	    1.199401E-02	    0.000000E+00	    0.000000E+00	    0.000000E+00	    1.224429E+04	    0.000000E+00	    0.000000E+00	   -1.000000E+00	
   -2.910616E-04	    1.202501E-02	    0.000000E+00	    0.000000E+00	    0.000000E+00	    1.218147E+04	    0.000000E+00	    0.000000E+00	   -1.000000E+00	
    2.910616E-04	    1.202501E-02	    0.000000E+00	    0.000000E+00	    0.000000E+00	    1.218147E+04	    0.000000E+00	    0.000000E+00	   -1.000000E+00	
    9.147098E-04	    1.199401E-02	    0.000000E+00	    0.000000E+00	    0.000000E+00	    1.224429E+04	    0.000000E+00	    0.000000E+00	   -1.000000E+00	
    1.624046E-03	    1.191947E-02	    0.000000E+00	    0.000000E+00	    0.000000E+00	    1.239741E+04	    0.000000E+00	    0.000000E+00	   -1.000000E+00	
    2.422723E-03	    1.178450E-02	    0.000000E+00	    0.000000E+00	    0.000000E+00	    1.268205E+04	    0.000000E+00	    0.000000E+00	   -1.000000E+00	
    3.309760E-03	    1.156900E-02	    0.000000E+00	    0.000000E+00	    0.000000E+00	    1.315730E+04	    0.000000E+00	    0.000000E+00	   -1.000000E+00	
    4.277187E-03	    1.125075E-02	    0.000000E+00	    0.000000E+00	    0.000000E+00	    1.390971E+04	    0.000000E+00	    0.000000E+00	   -1.000000E+00	
    5.307700E-03	    1.080785E-02	    0.000000E+00	    0.000000E+00	    0.000000E+00	    1.506934E+04	    0.000000E+00	    0.000000E+00	   -1.000000E+00	
    6.373131E-03	    1.022285E-02	    0.000000E+00	    0.000000E+00	    0.000000E+00	    1.683784E+04	    0.000000E+00	    0.000000E+00	   -1.000000E+00	
    7.434906E-03	    9.488109E-03	    0.000000E+00	    0.000000E+00	    0.000000E+00	    1.953856E+04	    0.000000E+00	    0.000000E+00	   -1.000000E+00	
    8.447590E-03	    8.611234E-03	    0.000000E+00	    0.000000E+00	    0.000000E+00	    2.370874E+04	    0.000000E+00	    0.000000E+00	   -1.000000E+00	
    9.365674E-03	    7.618435E-03	    0.000000E+00	    0.000000E+00	    0.000000E+00	    3.027383E+04	    0.000000E+00	    0.000000E+00	   -1.000000E+00	
    1.015216E-02	    6.553540E-03	    0.000000E+00	    0.000000E+00	    0.000000E+00	    4.088740E+04	    0.000000E+00	    0.000000E+00	   -1.000000E+00	
    1.078595E-02	    5.471868E-03	    0.000000E+00	    0.000000E+00	    0.000000E+00	    5.861503E+04	    0.000000E+00	    0.000000E+00	   -1.000000E+00	
    1.126508E-02	    4.430481E-03	    0.000000E+00	    0.000000E+00	    0.000000E+00	    8.935669E+04	    0.000000E+00	    0.000000E+00	   -1.000000E+00	
    1.160451E-02	    3.478208E-03	    0.000000E+00	    0.000000E+00	    0.000000E+00	    1.449065E+05	    0.000000E+00	    0.000000E+00	   -1.000000E+00	
    1.182997E-02	    2.648730E-03	    0.000000E+00	    0.000000E+00	    0.000000E+00	    2.497603E+05	    0.000000E+00	    0.000000E+00	   -1.000000E+00	
    1.197068E-02	    1.958259E-03	    0.000000E+00	    0.000000E+00	    0.000000E+00	    4.567641E+05	    0.000000E+00	    0.000000E+00	   -1.000000E+00	
    1.205344E-02	    1.407248E-03	    0.000000E+00	    0.000000E+00	    0.000000E+00	    8.842153E+05	    0.000000E+00	    0.000000E+00	   -1.000000E+00	
    1.209956E-02	    9.844690E-04	    0.000000E+00	    0.000000E+00	    0.000000E+00	    1.806312E+06	    0.000000E+00	    0.000000E+00	   -1.000000E+00	
    1.212408E-02	    6.717413E-04	    0.000000E+00	    0.000000E+00	    0.000000E+00	    3.878978E+06	    0.000000E+00	    0.000000E+00	   -1.000000E+00	
    1.213664E-02	    4.481479E-04	    0.000000E+00	    0.000000E+00	    0.000000E+00	    8.714141E+06	    0.000000E+00	    0.000000E+00	   -1.000000E+00	
    1.214292E-02	    2.931943E-04	    0.000000E+00	    0.000000E+00	    0.000000E+00	    2.035723E+07	    0.000000E+00	    0.000000E+00	   -1.000000E+00	
    1.214604E-02	    1.887791E-04	    0.000000E+00	    0.000000E+00	    0.000000E+00	    4.910173E+07	    0.000000E+00	    0.000000E+00	   -1.000000E+00	
    1.214760E-02	    1.201162E-04	    0.000000E+00	    0.000000E+00	    0.000000E+00	    1.212789E+08	    0.000000E+00	    0.000000E+00	   -1.000000E+00	
    1.214840E-02	    7.587059E-05	    0.000000E+00	    0.000000E+00	    0.000000E+00	    3.039699E+08	    0.000000E+00	    0.000000E+00	   -1.000000E+00	
    1.214864E-02	    6.022430E-05	    0.000000E+00	    0.000000E+00	    0.000000E+00	    3.039699E+08	    0.000000E+00	    0.000000E+00	   -1.000000E+00	
   -1.214823E-02	    6.021683E-05	    0.000000E+00	    0.000000E+00	    0.000000E+00	    3.039699E+08	    0.000000E+00	    0.000000E+00	   -1.000000E+00	
   -1.214788E-02	    7.586052E-05	    5.130146E-07	    2.595068E-05	    7.754465E-11	    3.039699E+08	    0.000000E+00	    2.559770E+03	   -1.000000E+00	
   -1.214679E-02	    1.200973E-04	    8.121802E-07	    8.284896E-05	    1.969475E-10	    1.212789E+08	    0.000000E+00	    1.040233E+04	   -1.000000E+00	
   -1.214476E-02	    1.887422E-04	    1.276429E-06	    1.560211E-04	    6.983157E-10	    4.910173E+07	    0.000000E+00	    1.493410E+04	   -1.000000E+00	
   -1.214094E-02	    2.931200E-04	    1.982374E-06	    2.581965E-04	    1.912909E-09	    2.035723E+07	    0.000000E+00	    1.695376E+04	   -1.000000E+00	
   -1.213361E-02	    4.479957E-04	    3.029931E-06	    4.044384E-04	    4.695598E-09	    8.714141E+06	    0.000000E+00	    1.780223E+04	   -1.000000E+00	
   -1.211955E-02	    6.714295E-04	    4.541364E-06	    6.121334E-04	    1.076469E-08	    3.878978E+06	    0.000000E+00	    1.814705E+04	   -1.000000E+00	
   -1.209293E-02	    9.838410E-04	    6.655008E-06	    8.999717E-04	    2.329562E-08	    1.806312E+06	    0.000000E+00	    1.825732E+04	   -1.000000E+00	
   -1.204401E-02	    1.406019E-03	    9.511871E-06	    1.285858E-03	    4.761235E-08	    8.842153E+05	    0.000000E+00	    1.823232E+04	   -1.000000E+00	
   -1.195764E-02	    1.955950E-03	    1.323424E-05	    1.784552E-03	    9.189791E-08	    4.567641E+05	    0.000000E+00	    1.812448E+04	   -1.000000E+00	
   -1.181256E-02	    2.644592E-03	    1.789713E-05	    2.404169E-03	    1.672675E-07	    2.497603E+05	    0.000000E+00	    1.796726E+04	   -1.000000E+00	
   -1.158209E-02	    3.471174E-03	    2.349639E-05	    3.142257E-03	    2.867531E-07	    1.449065E+05	    0.000000E+00	    1.778307E+04	   -1.000000E+00	
   -1.123737E-02	    4.419184E-03	    2.992138E-05	    3.983208E-03	    4.627339E-07	    8.935669E+04	    0.000000E+00	    1.759297E+04	   -1.000000E+00	
   -1.075320E-02	    5.454762E-03	    3.694374E-05	    4.895600E-03	    7.023613E-07	    5.861503E+04	    0.000000E+00	    1.740215E+04	   -1.000000E+00	
   -1.011527E-02	    6.529135E-03	    4.423346E-05	    5.831664E-03	    1.001548E-06	    4.088740E+04	    0.000000E+00	    1.719258E+04	   -1.000000E+00	
   -9.326133E-03	    7.585585E-03	    5.140585E-05	    6.753510E-03	    1.350143E-06	    3.027383E+04	    0.000000E+00	    1.704045E+04	   -1.000000E+00	
   -8.407300E-03	    8.569389E-03	    5.808884E-05	    7.615304E-03	    1.725317E-06	    2.370874E+04	    0.000000E+00	    1.693845E+04	   -1.000000E+00	
   -7.395854E-03	    9.437419E-03	    6.398845E-05	    8.353745E-03	    2.084188E-06	    1.953856E+04	    0.000000E+00	    1.676950E+04	   -1.000000E+00	
   -6.337078E-03	    1.016410E-02	    6.892958E-05	    8.974797E-03	    2.413980E-06	    1.683784E+04	    0.000000E+00	    1.665652E+04	   -1.000000E+00	
   -5.275967E-03	    1.074226E-02	    7.286227E-05	    9.472008E-03	    2.696700E-06	    1.506934E+04	    0.000000E+00	    1.658540E+04	   -1.000000E+00	
   -4.250574E-03	    1.117973E-02	    7.583882E-05	    9.850708E-03	    2.923308E-06	    1.390971E+04	    0.000000E+00	    1.654302E+04	   -1.000000E+00	
   -3.288587E-03	    1.149396E-02	    7.797724E-05	    1.012404E-02	    3.092963E-06	    1.315730E+04	    0.000000E+00	    1.651790E+04	   -1.000000E+00	
   -2.406938E-03	    1.170666E-02	    7.942498E-05	    1.030958E-02	    3.211054E-06	    1.268205E+04	    0.000000E+00	    1.650284E+04	   -1.000000E+00	
   -1.613344E-03	    1.183985E-02	    8.033164E-05	    1.042587E-02	    3.286279E-06	    1.239741E+04	    0.000000E+00	    1.649381E+04	   -1.000000E+00	
   -9.086448E-04	    1.191341E-02	    8.083240E-05	    1.048997E-02	    3.328144E-06	    1.224429E+04	    0.000000E+00	    1.648844E+04	   -1.000000E+00	
   -2.891268E-04	    1.194399E-02	    8.104058E-05	    1.051629E-02	    3.345419E-06	    1.218147E+04	    0.000000E+00	    1.648520E+04	   -1.000000E+00	
    2.891268E-04	    1.194399E-02	    8.104058E-05	    1.051629E-02	    3.345418E-06	    1.218147E+04	    0.000000E+00	    1.648519E+04	   -1.000000E+00	
    9.086448E-04	    1.191341E-02	    8.083240E-05	    1.048996E-02	    3.328141E-06	    1.224429E+04	    0.000000E+00	    1.648843E+04	   -1.000000E+00	
    1.613344E-03	    1.183985E-02	    8.033164E-05	    1.042586E-02	    3.286274E-06	    1.239741E+04	    0.000000E+00	    1.649379E+04	   -1.000000E+00	
    2.406938E-03	    1.170666E-02	    7.942498E-05	    1.030957E-02	    3.211048E-06	    1.268205E+04	    0.000000E+00	    1.650282E+04	   -1.000000E+00	
    3.288587E-03	    1.149396E-02	    7.797724E-05	    1.012403E-02	    3.092957E-06	    1.315730E+04	    0.000000E+00	    1.651787E+04	   -1.000000E+00	
    4.250574E-03	    1.117973E-02	    7.583882E-05	    9.850697E-03	    2.923301E-06	    1.390971E+04	    0.000000E+00	    1.654298E+04	   -1.000000E+00	
    5.275967E-03	    1.074226E-02	    7.286227E-05	    9.471996E-03	    2.696693E-06	    1.506934E+04	    0.000000E+00	    1.658536E+04	   -1.000000E+00	
    6.337078E-03	    1.016410E-02	    6.892958E-05	    8.974786E-03	    2.413974E-06	    1.683784E+04	    0.000000E+00	    1.665648E+04	   -1.000000E+00	
    7.395854E-03	    9.437419E-03	    6.398845E-05	    8.353733E-03	    2.084182E-06	    1.953856E+04	    0.000000E+00	    1.676946E+04	   -1.000000E+00	
    8.407300E-03	    8.569389E-03	    5.808884E-05	    7.615293E-03	    1.725311E-06	    2.370874E+04	    0.000000E+00	    1.693840E+04	   -1.000000E+00	
    9.326133E-03	    7.585585E-03	    5.140585E-05	    6.753499E-03	    1.350139E-06	    3.027383E+04	    0.000000E+00	    1.704040E+04	   -1.000000E+00	
    1.011527E-02	    6.529135E-03	    4.423346E-05	    5.831654E-03	    1.001544E-06	    4.088740E+04	    0.000000E+00	    1.719252E+04	   -1.000000E+00	
    1.075320E-02	    5.454762E-03	    3.694374E-05	    4.895592E-03	    7.023588E-07	    5.861503E+04	    0.000000E+00	    1.740209E+04	   -1.000000E+00	
    1.123737E-02	    4.419184E-03	    2.992138E-05	    3.983200E-03	    4.627322E-07	    8.935669E+04	    0.000000E+00	    1.759291E+04	   -1.000000E+00	
    1.158209E-02	    3.471174E-03	    2.349639E-05	    3.142251E-03	    2.867521E-07	    1.449065E+05	    0.000000E+00	    1.778301E+04	   -1.000000E+00	
    1.181256E-02	    2.644592E-03	    1.789713E-05	    2.404165E-03	    1.672670E-07	    2.497603E+05	    0.000000E+00	    1.796721E+04	   -1.000000E+00	
    1.195764E-02	    1.955950E-03	    1.323424E-05	    1.784550E-03	    9.189773E-08	    4.567641E+05	    0.000000E+00	    1.812444E+04	   -1.000000E+00	
    1.204401E-02	    1.406019E-03	    9.511871E-06	    1.285858E-03	    4.761233E-08	    8.842153E+05	    0.000000E+00	    1.823232E+04	   -1.000000E+00	
    1.209293E-02	    9.838410E-04	    6.655008E-06	    8.999725E-04	    2.329566E-08	    1.806312E+06	    0.000000E+00	    1.825735E+04	   -1.000000E+00	
    1.211955E-02	    6.714295E-04	    4.541364E-06	    6.121345E-04	    1.076473E-08	    3.878978E+06	    0.000000E+00	    1.814712E+04	   -1.000000E+00	
    1.213361E-02	    4.479957E-04	    3.029931E-06	    4.044395E-04	    4.695625E-09	    8.714141E+06	    0.000000E+00	    1.780233E+04	   -1.000000E+00	
    1.214094E-02	    2.931200E-04	    1.982374E-06	    2.581973E-04	    1.912922E-09	    2.035723E+07	    0.000000E+00	    1.695388E+04	   -1.000000E+00	
    1.214476E-02	    1.887422E-04	    1.276429E-06	    1.560217E-04	    6.983212E-10	    4.910173E+07	    0.000000E+00	    1.493421E+04	   -1.000000E+00	
    1.214679E-02	    1.200973E-04	    8.121802E-07	    8.284931E-05	    1.969492E-10	    1.212789E+08	    0.000000E+00	    1.040242E+04	   -1.000000E+00	
    1.214788E-02	    7.586052E-05	    5.130146E-07	    2.595079E-05	    7.754540E-11	    3.039699E+08	    0.000000E+00	    2.559792E+03	   -1.000000E+00	
    1.214823E-02	    6.021683E-05	    0.000000E+00	    0.000000E+00	    0.000000E+00	    3.039699E+08	    0.000000E+00	    0.000000E+00	   -1.000000E+00	
   -1.214729E-02	    6.018899E-05	    0.000000E+00	    0.000000E+00	    0.000000E+00	    3.267914E+05	    0.000000E+00	    0.000000E+00	   -1.000000E+00	
   -1.214670E-02	    7.582392E-05	    1.700202E-06	    8.597862E-05	    1.428441E-09	    3.267914E+05	    0.000000E+00	    2.580674E+03	   -1.000000E+00	
   -1.214491E-02	    1.200325E-04	    2.691602E-06	    2.745087E-04	    2.708357E-11	    1.689798E+07	    0.000000E+00	    1.040636E+04	   -1.000000E+00	
   -1.214181E-02	    1.886237E-04	    4.229956E-06	    5.169156E-04	    9.395778E-11	    6.843932E+06	    0.000000E+00	    1.492938E+04	   -1.000000E+00	
   -1.213636E-02	    2.928966E-04	    6.568946E-06	    8.553108E-04	    2.663265E-10	    2.837870E+06	    0.000000E+00	    1.694217E+04	   -1.000000E+00	
   -1.212662E-02	    4.475651E-04	    1.003921E-05	    1.339454E-03	    6.919025E-10	    1.215055E+06	    0.000000E+00	    1.778286E+04	   -1.000000E+00	
   -1.210908E-02	    6.705913E-04	    1.504495E-05	    2.026645E-03	    1.732763E-09	    5.410524E+05	    0.000000E+00	    1.811740E+04	   -1.000000E+00	
   -1.207763E-02	    9.822180E-04	    2.204275E-05	    2.978223E-03	    4.247990E-09	    2.521543E+05	    0.000000E+00	    1.821367E+04	   -1.000000E+00	
   -1.202224E-02	    1.402938E-03	    3.149671E-05	    4.252501E-03	    9.726674E-09	    1.283062E+05	    0.000000E+00	    1.816989E+04	   -1.000000E+00	
   -1.192760E-02	    1.950285E-03	    4.380713E-05	    5.896802E-03	    2.234017E-08	    6.662753E+04	    0.000000E+00	    1.803765E+04	   -1.000000E+00	
   -1.177247E-02	    2.634602E-03	    5.921573E-05	    7.935839E-03	    4.943342E-08	    3.646860E+04	    0.000000E+00	    1.784987E+04	   -1.000000E+00	
   -1.153054E-02	    3.454397E-03	    7.770064E-05	    1.035889E-02	    1.035417E-07	    2.118501E+04	    0.000000E+00	    1.762859E+04	   -1.000000E+00	
   -1.117378E-02	    4.392486E-03	    9.888750E-05	    1.311175E-02	    2.032015E-07	    1.308425E+04	    0.000000E+00	    1.739459E+04	   -1.000000E+00	
   -1.067819E-02	    5.414628E-03	    1.220149E-04	    1.608878E-02	    3.703211E-07	    8.599624E+03	    0.000000E+00	    1.715229E+04	   -1.000000E+00	
   -1.003092E-02	    6.472203E-03	    1.459906E-04	    1.913185E-02	    6.184084E-07	    6.013191E+03	    0.000000E+00	    1.688162E+04	   -1.000000E+00	
   -9.235911E-03	    7.509310E-03	    1.695484E-04	    2.211807E-02	    9.604361E-07	    4.465113E+03	    0.000000E+00	    1.665773E+04	   -1.000000E+00	
   -8.315533E-03	    8.472591E-03	    1.914704E-04	    2.490030E-02	    1.384542E-06	    3.508245E+03	    0.000000E+00	    1.647394E+04	   -1.000000E+00	
   -7.307048E-03	    9.320511E-03	    2.107999E-04	    2.727373E-02	    1.819086E-06	    2.901019E+03	    0.000000E+00	    1.621729E+04	   -1.000000E+00	
   -6.255202E-03	    1.002892E-02	    2.269728E-04	    2.926403E-02	    2.259076E-06	    2.508278E+03	    0.000000E+00	    1.601786E+04	   -1.000000E+00	
   -5.203976E-03	    1.059161E-02	    2.398343E-04	    3.085344E-02	    2.665571E-06	    2.251455E+03	    0.000000E+00	    1.586716E+04	   -1.000000E+00	
   -4.190246E-03	    1.101682E-02	    2.495627E-04	    3.206163E-02	    3.009943E-06	    2.083268E+03	    0.000000E+00	    1.575741E+04	   -1.000000E+00	
   -3.240620E-03	    1.132195E-02	    2.565484E-04	    3.293232E-02	    3.277969E-06	    1.974258E+03	    0.000000E+00	    1.567982E+04	   -1.000000E+00	
   -2.371191E-03	    1.152836E-02	    2.612763E-04	    3.352269E-02	    3.469458E-06	    1.905457E+03	    0.000000E+00	    1.562723E+04	   -1.000000E+00	
   -1.589114E-03	    1.165755E-02	    2.642365E-04	    3.389241E-02	    3.593506E-06	    1.864273E+03	    0.000000E+00	    1.559388E+04	   -1.000000E+00	
   -8.949150E-04	    1.172888E-02	    2.658712E-04	    3.409609E-02	    3.663255E-06	    1.842124E+03	    0.000000E+00	    1.557485E+04	   -1.000000E+00	
   -2.847469E-04	    1.175853E-02	    2.665508E-04	    3.417968E-02	    3.692190E-06	    1.833039E+03	    0.000000E+00	    1.556598E+04	   -1.000000E+00	
    2.847469E-04	    1.175853E-02	    2.665508E-04	    3.417968E-02	    3.692188E-06	    1.833039E+03	    0.000000E+00	    1.556598E+04	   -1.000000E+00	
    8.949150E-04	    1.172888E-02	    2.658712E-04	    3.409607E-02	    3.663249E-06	    1.842124E+03	    0.000000E+00	    1.557484E+04	   -1.000000E+00	
    1.589114E-03	    1.165755E-02	    2.642365E-04	    3.389239E-02	    3.593496E-06	    1.864273E+03	    0.000000E+00	    1.559386E+04	   -1.000000E+00	
    2.371191E-03	    1.152836E-02	    2.612763E-04	    3.352266E-02	    3.469446E-06	    1.905457E+03	    0.000000E+00	    1.562721E+04	   -1.000000E+00	
    3.240620E-03	    1.132195E-02	    2.565484E-04	    3.293228E-02	    3.277956E-06	    1.974258E+03	    0.000000E+00	    1.567979E+04	   -1.000000E+00	
    4.190246E-03	    1.101682E-02	    2.495627E-04	    3.206159E-02	    3.009931E-06	    2.083268E+03	    0.000000E+00	    1.575738E+04	   -1.000000E+00	
    5.203976E-03	    1.059161E-02	    2.398343E-04	    3.085340E-02	    2.665559E-06	    2.251455E+03	    0.000000E+00	    1.586712E+04	   -1.000000E+00	
    6.255202E-03	    1.002892E-02	    2.269728E-04	    2.926399E-02	    2.259066E-06	    2.508278E+03	    0.000000E+00	    1.601782E+04	   -1.000000E+00	
    7.307048E-03	    9.320511E-03	    2.107999E-04	    2.727370E-02	    1.819077E-06	    2.901018E+03	    0.000000E+00	    1.621724E+04	   -1.000000E+00	
    8.315533E-03	    8.472591E-03	    1.914704E-04	    2.490027E-02	    1.384535E-06	    3.508245E+03	    0.000000E+00	    1.647389E+04	   -1.000000E+00	
    9.235911E-03	    7.509310E-03	    1.695484E-04	    2.211804E-02	    9.604308E-07	    4.465113E+03	    0.000000E+00	    1.665768E+04	   -1.000000E+00	
    1.003092E-02	    6.472203E-03	    1.459906E-04	    1.913182E-02	    6.184049E-07	    6.013191E+03	    0.000000E+00	    1.688156E+04	   -1.000000E+00	
    1.067819E-02	    5.414628E-03	    1.220149E-04	    1.608875E-02	    3.703189E-07	    8.599624E+03	    0.000000E+00	    1.715223E+04	   -1.000000E+00	
    1.117378E-02	    4.392486E-03	    9.888750E-05	    1.311172E-02	    2.032002E-07	    1.308425E+04	    0.000000E+00	    1.739453E+04	   -1.000000E+00	
    1.153054E-02	    3.454397E-03	    7.770064E-05	    1.035887E-02	    1.035411E-07	    2.118501E+04	    0.000000E+00	    1.762853E+04	   -1.000000E+00	
    1.177247E-02	    2.634602E-03	    5.921573E-05	    7.935827E-03	    4.943319E-08	    3.646860E+04	    0.000000E+00	    1.784981E+04	   -1.000000E+00	
    1.192760E-02	    1.950285E-03	    4.380713E-05	    5.896797E-03	    2.234012E-08	    6.662753E+04	    0.000000E+00	    1.803762E+04	   -1.000000E+00	
    1.202224E-02	    1.402938E-03	    3.149671E-05	    4.252500E-03	    9.726674E-09	    1.283063E+05	    0.000000E+00	    1.816988E+04	   -1.000000E+00	
    1.207763E-02	    9.822180E-04	    2.204275E-05	    2.978226E-03	    4.248014E-09	    2.521543E+05	    0.000000E+00	    1.821370E+04	   -1.000000E+00	
    1.210908E-02	    6.705913E-04	    1.504495E-05	    2.026649E-03	    1.732781E-09	    5.410524E+05	    0.000000E+00	    1.811747E+04	   -1.000000E+00	
    1.212662E-02	    4.475651E-04	    1.003921E-05	    1.339458E-03	    6.919117E-10	    1.215055E+06	    0.000000E+00	    1.778296E+04	   -1.000000E+00	
    1.213636E-02	    2.928966E-04	    6.568946E-06	    8.553137E-04	    2.663303E-10	    2.837870E+06	    0.000000E+00	    1.694229E+04	   -1.000000E+00	
    1.214181E-02	    1.886237E-04	    4.229956E-06	    5.169177E-04	    9.395902E-11	    6.843932E+06	    0.000000E+00	    1.492950E+04	   -1.000000E+00	
    1.214491E-02	    1.200325E-04	    2.691602E-06	    2.745099E-04	    2.708387E-11	    1.689798E+07	    0.000000E+00	    1.040645E+04	   -1.000000E+00	
    1.214670E-02	    7.582392E-05	    1.700202E-06	    8.597899E-05	    1.428455E-09	    3.267914E+05	    0.000000E+00	    2.580697E+03	   -1.000000E+00	
    1.214729E-02	    6.018899E-05	    0.000000E+00	    0.000000E+00	    0.000000E+00	    3.267914E+05	    0.000000E+00	    0.000000E+00	   -1.000000E+00	
   -1.214606E-02	    6.013027E-05	    0.000000E+00	    0.000000E+00	    0.000000E+00	    3.268664E+05	    0.000000E+00	    0.000000E+00	   -1.000000E+00	
   -1.214514E-02	    7.574794E-05	    3.254592E-06	    1.645160E-04	    3.255911E-09	    3.268664E+05	    0.000000E+00	    2.645377E+03	   -1.000000E+00	
   -1.214245E-02	    1.199033E-04	    5.152175E-06	    5.252928E-04	    1.848490E-11	    4.456023E+06	    0.000000E+00	    1.042669E+04	   -1.000000E+00	
   -1.213795E-02	    1.883989E-04	    8.096374E-06	    9.890738E-04	    5.315039E-11	    1.806616E+06	    0.000000E+00	    1.492956E+04	   -1.000000E+00	
   -1.213037E-02	    2.924961E-04	    1.257223E-05	    1.636303E-03	    2.374039E-10	    7.492820E+05	    0.000000E+00	    1.692987E+04	   -1.000000E+00	
   -1.211747E-02	    4.468365E-04	    1.921142E-05	    2.561885E-03	    9.741625E-10	    3.209110E+05	    0.000000E+00	    1.775896E+04	   -1.000000E+00	
   -1.209540E-02	    6.692483E-04	    2.878519E-05	    3.874815E-03	    3.737118E-09	    1.429621E+05	    0.000000E+00	    1.807948E+04	   -1.000000E+00	
   -1.205766E-02	    9.797366E-04	    4.216286E-05	    5.691246E-03	    1.320918E-08	    6.666068E+04	    0.000000E+00	    1.815723E+04	   -1.000000E+00	
   -1.199387E-02	    1.398403E-03	    6.022487E-05	    8.120639E-03	    4.069855E-08	    3.345144E+04	    0.000000E+00	    1.808875E+04	   -1.000000E+00	
   -1.188851E-02	    1.942193E-03	    8.372509E-05	    1.125026E-02	    1.169822E-07	    1.736362E+04	    0.000000E+00	    1.792410E+04	   -1.000000E+00	
   -1.172040E-02	    2.620657E-03	    1.131093E-04	    1.512282E-02	    3.055782E-07	    9.522244E+03	    0.000000E+00	    1.769368E+04	   -1.000000E+00	
   -1.146377E-02	    3.431390E-03	    1.483157E-04	    1.971223E-02	    7.219285E-07	    5.548476E+03	    0.000000E+00	    1.741311E+04	   -1.000000E+00	
   -1.109163E-02	    4.356381E-03	    1.886092E-04	    2.490886E-02	    1.544115E-06	    3.444218E+03	    0.000000E+00	    1.708759E+04	   -1.000000E+00	
   -1.058159E-02	    5.360950E-03	    2.325215E-04	    3.050503E-02	    2.989496E-06	    2.282367E+03	    0.000000E+00	    1.669278E+04	   -1.000000E+00	
   -9.922639E-03	    6.396738E-03	    2.779660E-04	    3.619300E-02	    5.195131E-06	    1.615606E+03	    0.000000E+00	    1.617721E+04	   -1.000000E+00	
   -9.120433E-03	    7.408936E-03	    3.225412E-04	    4.173537E-02	    8.291605E-06	    1.219472E+03	    0.000000E+00	    1.560225E+04	   -1.000000E+00	
   -8.198414E-03	    8.345956E-03	    3.639529E-04	    4.685343E-02	    1.215813E-05	    9.767824E+02	    0.000000E+00	    1.498895E+04	   -1.000000E+00	
   -7.193992E-03	    9.168279E-03	    4.004130E-04	    5.116579E-02	    1.608602E-05	    8.239503E+02	    0.000000E+00	    1.431031E+04	   -1.000000E+00	
   -6.151187E-03	    9.853530E-03	    4.308800E-04	    5.474020E-02	    2.004068E-05	    7.257850E+02	    0.000000E+00	    1.372383E+04	   -1.000000E+00	
   -5.112671E-03	    1.039668E-02	    4.550838E-04	    5.756127E-02	    2.366186E-05	    6.619056E+02	    0.000000E+00	    1.324795E+04	   -1.000000E+00	
   -4.113830E-03	    1.080645E-02	    4.733765E-04	    5.968327E-02	    2.670008E-05	    6.202062E+02	    0.000000E+00	    1.288537E+04	   -1.000000E+00	
   -3.179916E-03	    1.110015E-02	    4.865044E-04	    6.119933E-02	    2.904378E-05	    5.932289E+02	    0.000000E+00	    1.262421E+04	   -1.000000E+00	
   -2.325978E-03	    1.129865E-02	    4.953855E-04	    6.222056E-02	    3.070627E-05	    5.762184E+02	    0.000000E+00	    1.244710E+04	   -1.000000E+00	
   -1.558481E-03	    1.142283E-02	    5.009446E-04	    6.285719E-02	    3.177773E-05	    5.660398E+02	    0.000000E+00	    1.233594E+04	   -1.000000E+00	
   -8.775603E-04	    1.149137E-02	    5.040140E-04	    6.320689E-02	    3.237826E-05	    5.605654E+02	    0.000000E+00	    1.227419E+04	   -1.000000E+00	
   -2.792113E-04	    1.151986E-02	    5.052900E-04	    6.335017E-02	    3.262694E-05	    5.583194E+02	    0.000000E+00	    1.224800E+04	   -1.000000E+00	
    2.792113E-04	    1.151986E-02	    5.052900E-04	    6.335016E-02	    3.262692E-05	    5.583194E+02	    0.000000E+00	    1.224800E+04	   -1.000000E+00	
    8.775603E-04	    1.149137E-02	    5.040140E-04	    6.320686E-02	    3.237820E-05	    5.605654E+02	    0.000000E+00	    1.227418E+04	   -1.000000E+00	
    1.558481E-03	    1.142283E-02	    5.009446E-04	    6.285715E-02	    3.177764E-05	    5.660397E+02	    0.000000E+00	    1.233592E+04	   -1.000000E+00	
    2.325978E-03	    1.129865E-02	    4.953855E-04	    6.222051E-02	    3.070616E-05	    5.762183E+02	    0.000000E+00	    1.244709E+04	   -1.000000E+00	
    3.179916E-03	    1.110015E-02	    4.865044E-04	    6.119927E-02	    2.904367E-05	    5.932288E+02	    0.000000E+00	    1.262419E+04	   -1.000000E+00	
    4.113830E-03	    1.080645E-02	    4.733765E-04	    5.968321E-02	    2.669996E-05	    6.202061E+02	    0.000000E+00	    1.288535E+04	   -1.000000E+00	
    5.112671E-03	    1.039668E-02	    4.550838E-04	    5.756120E-02	    2.366175E-05	    6.619055E+02	    0.000000E+00	    1.324792E+04	   -1.000000E+00	
    6.151187E-03	    9.853530E-03	    4.308800E-04	    5.474013E-02	    2.004058E-05	    7.257848E+02	    0.000000E+00	    1.372380E+04	   -1.000000E+00	
    7.193992E-03	    9.168279E-03	    4.004130E-04	    5.116572E-02	    1.608594E-05	    8.239502E+02	    0.000000E+00	    1.431028E+04	   -1.000000E+00	
    8.198414E-03	    8.345956E-03	    3.639529E-04	    4.685336E-02	    1.215806E-05	    9.767822E+02	    0.000000E+00	    1.498891E+04	   -1.000000E+00	
    9.120433E-03	    7.408936E-03	    3.225412E-04	    4.173530E-02	    8.291556E-06	    1.219472E+03	    0.000000E+00	    1.560220E+04	   -1.000000E+00	
    9.922639E-03	    6.396738E-03	    2.779660E-04	    3.619294E-02	    5.195098E-06	    1.615606E+03	    0.000000E+00	    1.617715E+04	   -1.000000E+00	