Title="Fields"
Variables="X""Y""Velocity""Phi""Effective Viscosity""Dynamic Viscosity""Density""Eddy Viscosity""K""Epsilon""S"
Zone I=82 J=82 F=POINT
   -1.214864E-02	    6.022430E-05	    0.000000E+00	   -1.000000E+00	    1.000000E-03	    1.000000E-03	    1.000000E+03	    0.000000E+00	    0.000000E+00	    0.000000E+00	    0.000000E+00	
   -1.214850E-02	    6.958711E-05	    0.000000E+00	   -1.000000E+00	    1.000000E-03	    1.000000E-03	    1.000000E+03	    0.000000E+00	    0.000000E+00	    0.000000E+00	    0.000000E+00	
   -1.214811E-02	    9.284917E-05	    0.000000E+00	   -1.000000E+00	    1.000000E-03	    1.000000E-03	    1.000000E+03	    0.000000E+00	    0.000000E+00	    0.000000E+00	    0.000000E+00	
   -1.214753E-02	    1.236630E-04	    0.000000E+00	   -1.000000E+00	    1.000000E-03	    1.000000E-03	    1.000000E+03	    0.000000E+00	    0.000000E+00	    0.000000E+00	    0.000000E+00	
   -1.214664E-02	    1.642119E-04	    0.000000E+00	   -1.000000E+00	    1.000000E-03	    1.000000E-03	    1.000000E+03	    0.000000E+00	    0.000000E+00	    0.000000E+00	    0.000000E+00	
   -1.214528E-02	    2.171613E-04	    0.000000E+00	   -1.000000E+00	    1.000000E-03	    1.000000E-03	    1.000000E+03	    0.000000E+00	    0.000000E+00	    0.000000E+00	    0.000000E+00	
   -1.214317E-02	    2.856999E-04	    0.000000E+00	   -1.000000E+00	    1.000000E-03	    1.000000E-03	    1.000000E+03	    0.000000E+00	    0.000000E+00	    0.000000E+00	    0.000000E+00	
   -1.213991E-02	    3.735571E-04	    0.000000E+00	   -1.000000E+00	    1.000000E-03	    1.000000E-03	    1.000000E+03	    0.000000E+00	    0.000000E+00	    0.000000E+00	    0.000000E+00	
   -1.213485E-02	    4.849849E-04	    0.000000E+00	   -1.000000E+00	    1.000000E-03	    1.000000E-03	    1.000000E+03	    0.000000E+00	    0.000000E+00	    0.000000E+00	    0.000000E+00	
   -1.212706E-02	    6.246949E-04	    0.000000E+00	   -1.000000E+00	    1.000000E-03	    1.000000E-03	    1.000000E+03	    0.000000E+00	    0.000000E+00	    0.000000E+00	    0.000000E+00	
   -1.211518E-02	    7.977369E-04	    0.000000E+00	   -1.000000E+00	    1.000000E-03	    1.000000E-03	    1.000000E+03	    0.000000E+00	    0.000000E+00	    0.000000E+00	    0.000000E+00	
   -1.209726E-02	    1.009312E-03	    0.000000E+00	   -1.000000E+00	    1.000000E-03	    1.000000E-03	    1.000000E+03	    0.000000E+00	    0.000000E+00	    0.000000E+00	    0.000000E+00	
   -1.207069E-02	    1.264512E-03	    0.000000E+00	   -1.000000E+00	    1.000000E-03	    1.000000E-03	    1.000000E+03	    0.000000E+00	    0.000000E+00	    0.000000E+00	    0.000000E+00	
   -1.203196E-02	    1.567989E-03	    0.000000E+00	   -1.000000E+00	    1.000000E-03	    1.000000E-03	    1.000000E+03	    0.000000E+00	    0.000000E+00	    0.000000E+00	    0.000000E+00	
   -1.197665E-02	    1.923554E-03	    0.000000E+00	   -1.000000E+00	    1.000000E-03	    1.000000E-03	    1.000000E+03	    0.000000E+00	    0.000000E+00	    0.000000E+00	    0.000000E+00	
   -1.189934E-02	    2.333731E-03	    0.000000E+00	   -1.000000E+00	    1.000000E-03	    1.000000E-03	    1.000000E+03	    0.000000E+00	    0.000000E+00	    0.000000E+00	    0.000000E+00	
   -1.179371E-02	    2.799291E-03	    0.000000E+00	   -1.000000E+00	    1.000000E-03	    1.000000E-03	    1.000000E+03	    0.000000E+00	    0.000000E+00	    0.000000E+00	    0.000000E+00	
   -1.165276E-02	    3.318811E-03	    0.000000E+00	   -1.000000E+00	    1.000000E-03	    1.000000E-03	    1.000000E+03	    0.000000E+00	    0.000000E+00	    0.000000E+00	    0.000000E+00	
   -1.146925E-02	    3.888331E-03	    0.000000E+00	   -1.000000E+00	    1.000000E-03	    1.000000E-03	    1.000000E+03	    0.000000E+00	    0.000000E+00	    0.000000E+00	    0.000000E+00	
   -1.123626E-02	    4.501167E-03	    0.000000E+00	   -1.000000E+00	    1.000000E-03	    1.000000E-03	    1.000000E+03	    0.000000E+00	    0.000000E+00	    0.000000E+00	    0.000000E+00	
   -1.094784E-02	    5.147962E-03	    0.000000E+00	   -1.000000E+00	    1.000000E-03	    1.000000E-03	    1.000000E+03	    0.000000E+00	    0.000000E+00	    0.000000E+00	    0.000000E+00	
   -1.059983E-02	    5.817025E-03	    0.000000E+00	   -1.000000E+00	    1.000000E-03	    1.000000E-03	    1.000000E+03	    0.000000E+00	    0.000000E+00	    0.000000E+00	    0.000000E+00	
   -1.019044E-02	    6.494952E-03	    0.000000E+00	   -1.000000E+00	    1.000000E-03	    1.000000E-03	    1.000000E+03	    0.000000E+00	    0.000000E+00	    0.000000E+00	    0.000000E+00	
   -9.720744E-03	    7.167508E-03	    0.000000E+00	   -1.000000E+00	    1.000000E-03	    1.000000E-03	    1.000000E+03	    0.000000E+00	    0.000000E+00	    0.000000E+00	    0.000000E+00	
   -9.194834E-03	    7.820637E-03	    0.000000E+00	   -1.000000E+00	    1.000000E-03	    1.000000E-03	    1.000000E+03	    0.000000E+00	    0.000000E+00	    0.000000E+00	    0.000000E+00	
   -8.619619E-03	    8.441483E-03	    0.000000E+00	   -1.000000E+00	    1.000000E-03	    1.000000E-03	    1.000000E+03	    0.000000E+00	    0.000000E+00	    0.000000E+00	    0.000000E+00	
   -8.004317E-03	    9.019255E-03	    0.000000E+00	   -1.000000E+00	    1.000000E-03	    1.000000E-03	    1.000000E+03	    0.000000E+00	    0.000000E+00	    0.000000E+00	    0.000000E+00	
   -7.359702E-03	    9.545831E-03	    0.000000E+00	   -1.000000E+00	    1.000000E-03	    1.000000E-03	    1.000000E+03	    0.000000E+00	    0.000000E+00	    0.000000E+00	    0.000000E+00	
   -6.697247E-03	    1.001602E-02	    0.000000E+00	   -1.000000E+00	    1.000000E-03	    1.000000E-03	    1.000000E+03	    0.000000E+00	    0.000000E+00	    0.000000E+00	    0.000000E+00	
   -6.028288E-03	    1.042754E-02	    0.000000E+00	   -1.000000E+00	    1.000000E-03	    1.000000E-03	    1.000000E+03	    0.000000E+00	    0.000000E+00	    0.000000E+00	    0.000000E+00	
   -5.363328E-03	    1.078067E-02	    0.000000E+00	   -1.000000E+00	    1.000000E-03	    1.000000E-03	    1.000000E+03	    0.000000E+00	    0.000000E+00	    0.000000E+00	    0.000000E+00	
   -4.711536E-03	    1.107778E-02	    0.000000E+00	   -1.000000E+00	    1.000000E-03	    1.000000E-03	    1.000000E+03	    0.000000E+00	    0.000000E+00	    0.000000E+00	    0.000000E+00	
   -4.080454E-03	    1.132282E-02	    0.000000E+00	   -1.000000E+00	    1.000000E-03	    1.000000E-03	    1.000000E+03	    0.000000E+00	    0.000000E+00	    0.000000E+00	    0.000000E+00	
   -3.475907E-03	    1.152069E-02	    0.000000E+00	   -1.000000E+00	    1.000000E-03	    1.000000E-03	    1.000000E+03	    0.000000E+00	    0.000000E+00	    0.000000E+00	    0.000000E+00	
   -2.902065E-03	    1.167683E-02	    0.000000E+00	   -1.000000E+00	    1.000000E-03	    1.000000E-03	    1.000000E+03	    0.000000E+00	    0.000000E+00	    0.000000E+00	    0.000000E+00	
   -2.361599E-03	    1.179678E-02	    0.000000E+00	   -1.000000E+00	    1.000000E-03	    1.000000E-03	    1.000000E+03	    0.000000E+00	    0.000000E+00	    0.000000E+00	    0.000000E+00	
   -1.855907E-03	    1.188592E-02	    0.000000E+00	   -1.000000E+00	    1.000000E-03	    1.000000E-03	    1.000000E+03	    0.000000E+00	    0.000000E+00	    0.000000E+00	    0.000000E+00	
   -1.385345E-03	    1.194926E-02	    0.000000E+00	   -1.000000E+00	    1.000000E-03	    1.000000E-03	    1.000000E+03	    0.000000E+00	    0.000000E+00	    0.000000E+00	    0.000000E+00	
   -9.494686E-04	    1.199134E-02	    0.000000E+00	   -1.000000E+00	    1.000000E-03	    1.000000E-03	    1.000000E+03	    0.000000E+00	    0.000000E+00	    0.000000E+00	    0.000000E+00	
   -5.472339E-04	    1.201617E-02	    0.000000E+00	   -1.000000E+00	    1.000000E-03	    1.000000E-03	    1.000000E+03	    0.000000E+00	    0.000000E+00	    0.000000E+00	    0.000000E+00	
   -1.771813E-04	    1.202721E-02	    0.000000E+00	   -1.000000E+00	    1.000000E-03	    1.000000E-03	    1.000000E+03	    0.000000E+00	    0.000000E+00	    0.000000E+00	    0.000000E+00	
    1.771813E-04	    1.202721E-02	    0.000000E+00	   -1.000000E+00	    1.000000E-03	    1.000000E-03	    1.000000E+03	    0.000000E+00	    0.000000E+00	    0.000000E+00	    0.000000E+00	
    5.472339E-04	    1.201617E-02	    0.000000E+00	   -1.000000E+00	    1.000000E-03	    1.000000E-03	    1.000000E+03	    0.000000E+00	    0.000000E+00	    0.000000E+00	    0.000000E+00	
    9.494686E-04	    1.199134E-02	    0.000000E+00	   -1.000000E+00	    1.000000E-03	    1.000000E-03	    1.000000E+03	    0.000000E+00	    0.000000E+00	    0.000000E+00	    0.000000E+00	
    1.385345E-03	    1.194926E-02	    0.000000E+00	   -1.000000E+00	    1.000000E-03	    1.000000E-03	    1.000000E+03	    0.000000E+00	    0.000000E+00	    0.000000E+00	    0.000000E+00	
    1.855907E-03	    1.188592E-02	    0.000000E+00	   -1.000000E+00	    1.000000E-03	    1.000000E-03	    1.000000E+03	    0.000000E+00	    0.000000E+00	    0.000000E+00	    0.000000E+00	
    2.361599E-03	    1.179678E-02	    0.000000E+00	   -1.000000E+00	    1.000000E-03	    1.000000E-03	    1.000000E+03	    0.000000E+00	    0.000000E+00	    0.000000E+00	    0.000000E+00	
    2.902065E-03	    1.167683E-02	    0.000000E+00	   -1.000000E+00	    1.000000E-03	    1.000000E-03	    1.000000E+03	    0.000000E+00	    0.000000E+00	    0.000000E+00	    0.000000E+00	
    3.475907E-03	    1.152069E-02	    0.000000E+00	   -1.000000E+00	    1.000000E-03	    1.000000E-03	    1.000000E+03	    0.000000E+00	    0.000000E+00	    0.000000E+00	    0.000000E+00	
    4.080454E-03	    1.132282E-02	    0.000000E+00	   -1.000000E+00	    1.000000E-03	    1.000000E-03	    1.000000E+03	    0.000000E+00	    0.000000E+00	    0.000000E+00	    0.000000E+00	
    4.711536E-03	    1.107778E-02	    0.000000E+00	   -1.000000E+00	    1.000000E-03	    1.000000E-03	    1.000000E+03	    0.000000E+00	    0.000000E+00	    0.000000E+00	    0.000000E+00	
    5.363328E-03	    1.078067E-02	    0.000000E+00	   -1.000000E+00	    1.000000E-03	    1.000000E-03	    1.000000E+03	    0.000000E+00	    0.000000E+00	    0.000000E+00	    0.000000E+00	
    6.028288E-03	    1.042754E-02	    0.000000E+00	   -1.000000E+00	    1.000000E-03	    1.000000E-03	    1.000000E+03	    0.000000E+00	    0.000000E+00	    0.000000E+00	    0.000000E+00	
    6.697247E-03	    1.001602E-02	    0.000000E+00	   -1.000000E+00	    1.000000E-03	    1.000000E-03	    1.000000E+03	    0.000000E+00	    0.000000E+00	    0.000000E+00	    0.000000E+00	
    7.359702E-03	    9.545831E-03	    0.000000E+00	   -1.000000E+00	    1.000000E-03	    1.000000E-03	    1.000000E+03	    0.000000E+00	    0.000000E+00	    0.000000E+00	    0.000000E+00	
    8.004317E-03	    9.019255E-03	    0.000000E+00	   -1.000000E+00	    1.000000E-03	    1.000000E-03	    1.000000E+03	    0.000000E+00	    0.000000E+00	    0.000000E+00	    0.000000E+00	
    8.619619E-03	    8.441483E-03	    0.000000E+00	   -1.000000E+00	    1.000000E-03	    1.000000E-03	    1.000000E+03	    0.000000E+00	    0.000000E+00	    0.000000E+00	    0.000000E+00	
    9.194834E-03	    7.820637E-03	    0.000000E+00	   -1.000000E+00	    1.000000E-03	    1.000000E-03	    1.000000E+03	    0.000000E+00	    0.000000E+00	    0.000000E+00	    0.000000E+00	
    9.720744E-03	    7.167508E-03	    0.000000E+00	   -1.000000E+00	    1.000000E-03	    1.000000E-03	    1.000000E+03	    0.000000E+00	    0.000000E+00	    0.000000E+00	    0.000000E+00	
    1.019044E-02	    6.494952E-03	    0.000000E+00	   -1.000000E+00	    1.000000E-03	    1.000000E-03	    1.000000E+03	    0.000000E+00	    0.000000E+00	    0.000000E+00	    0.000000E+00	
    1.059983E-02	    5.817025E-03	    0.000000E+00	   -1.000000E+00	    1.000000E-03	    1.000000E-03	    1.000000E+03	    0.000000E+00	    0.000000E+00	    0.000000E+00	    0.000000E+00	
    1.094784E-02	    5.147962E-03	    0.000000E+00	   -1.000000E+00	    1.000000E-03	    1.000000E-03	    1.000000E+03	    0.000000E+00	    0.000000E+00	    0.000000E+00	    0.000000E+00	
    1.123626E-02	    4.501167E-03	    0.000000E+00	   -1.000000E+00	    1.000000E-03	    1.000000E-03	    1.000000E+03	    0.000000E+00	    0.000000E+00	    0.000000E+00	    0.000000E+00	
    1.146925E-02	    3.888331E-03	    0.000000E+00	   -1.000000E+00	    1.000000E-03	    1.000000E-03	    1.000000E+03	    0.000000E+00	    0.000000E+00	    0.000000E+00	    0.000000E+00	
    1.165276E-02	    3.318811E-03	    0.000000E+00	   -1.000000E+00	    1.000000E-03	    1.000000E-03	    1.000000E+03	    0.000000E+00	    0.000000E+00	    0.000000E+00	    0.000000E+00	
    1.179371E-02	    2.799291E-03	    0.000000E+00	   -1.000000E+00	    1.000000E-03	    1.000000E-03	    1.000000E+03	    0.000000E+00	    0.000000E+00	    0.000000E+00	    0.000000E+00	
    1.189934E-02	    2.333731E-03	    0.000000E+00	   -1.000000E+00	    1.000000E-03	    1.000000E-03	    1.000000E+03	    0.000000E+00	    0.000000E+00	    0.000000E+00	    0.000000E+00	
    1.197665E-02	    1.923554E-03	    0.000000E+00	   -1.000000E+00	    1.000000E-03	    1.000000E-03	    1.000000E+03	    0.000000E+00	    0.000000E+00	    0.000000E+00	    0.000000E+00	
    1.203196E-02	    1.567989E-03	    0.000000E+00	   -1.000000E+00	    1.000000E-03	    1.000000E-03	    1.000000E+03	    0.000000E+00	    0.000000E+00	    0.000000E+00	    0.000000E+00	
    1.207069E-02	    1.264512E-03	    0.000000E+00	   -1.000000E+00	    1.000000E-03	    1.000000E-03	    1.000000E+03	    0.000000E+00	    0.000000E+00	    0.000000E+00	    0.000000E+00	
    1.209726E-02	    1.009312E-03	    0.000000E+00	   -1.000000E+00	    1.000000E-03	    1.000000E-03	    1.000000E+03	    0.000000E+00	    0.000000E+00	    0.000000E+00	    0.000000E+00	
    1.211518E-02	    7.977369E-04	    0.000000E+00	   -1.000000E+00	    1.000000E-03	    1.000000E-03	    1.000000E+03	    0.000000E+00	    0.000000E+00	    0.000000E+00	    0.000000E+00	
    1.212706E-02	    6.246949E-04	    0.000000E+00	   -1.000000E+00	    1.000000E-03	    1.000000E-03	    1.000000E+03	    0.000000E+00	    0.000000E+00	    0.000000E+00	    0.000000E+00	
    1.213485E-02	    4.849849E-04	    0.000000E+00	   -1.000000E+00	    1.000000E-03	    1.000000E-03	    1.000000E+03	    0.000000E+00	    0.000000E+00	    0.000000E+00	    0.000000E+00	
    1.213991E-02	    3.735571E-04	    0.000000E+00	   -1.000000E+00	    1.000000E-03	    1.000000E-03	    1.000000E+03	    0.000000E+00	    0.000000E+00	    0.000000E+00	    0.000000E+00	
    1.214317E-02	    2.856999E-04	    0.000000E+00	   -1.000000E+00	    1.000000E-03	    1.000000E-03	    1.000000E+03	    0.000000E+00	    0.000000E+00	    0.000000E+00	    0.000000E+00	
    1.214528E-02	    2.171613E-04	    0.000000E+00	   -1.000000E+00	    1.000000E-03	    1.000000E-03	    1.000000E+03	    0.000000E+00	    0.000000E+00	    0.000000E+00	    0.000000E+00	
    1.214664E-02	    1.642119E-04	    0.000000E+00	   -1.000000E+00	    1.000000E-03	    1.000000E-03	    1.000000E+03	    0.000000E+00	    0.000000E+00	    0.000000E+00	    0.000000E+00	
    1.214753E-02	    1.236630E-04	    0.000000E+00	   -1.000000E+00	    1.000000E-03	    1.000000E-03	    1.000000E+03	    0.000000E+00	    0.000000E+00	    0.000000E+00	    0.000000E+00	
    1.214811E-02	    9.284917E-05	    0.000000E+00	   -1.000000E+00	    1.000000E-03	    1.000000E-03	    1.000000E+03	    0.000000E+00	    0.000000E+00	    0.000000E+00	    0.000000E+00	
    1.214850E-02	    6.958711E-05	    0.000000E+00	   -1.000000E+00	    1.000000E-03	    1.000000E-03	    1.000000E+03	    0.000000E+00	    0.000000E+00	    0.000000E+00	    0.000000E+00	
    1.214864E-02	    6.022430E-05	    0.000000E+00	   -1.000000E+00	    1.000000E-03	    1.000000E-03	    1.000000E+03	    0.000000E+00	    0.000000E+00	    0.000000E+00	    0.000000E+00	
   -1.214840E-02	    6.022021E-05	    0.000000E+00	   -1.000000E+00	    1.000000E-03	    1.000000E-03	    1.000000E+03	    0.000000E+00	    0.000000E+00	    0.000000E+00	    0.000000E+00	
   -1.214822E-02	    6.958217E-05	    9.007613E-05	   -1.000000E+00	    1.000379E-03	    1.000000E-03	    1.000000E+03	    2.529960E-06	    1.633852E-03	    9.496294E+01	    1.038654E+05	
   -1.214774E-02	    9.284187E-05	    2.728773E-04	   -1.000000E+00	    1.000359E-03	    1.000000E-03	    1.000000E+03	    2.393422E-06	    8.213509E-04	    2.536768E+01	    5.381488E+05	
   -1.214703E-02	    1.236520E-04	    4.825024E-04	   -1.000000E+00	    1.000534E-03	    1.000000E-03	    1.000000E+03	    3.562442E-06	    1.025809E-03	    2.658446E+01	    9.483127E+05	
   -1.214598E-02	    1.641951E-04	    7.335131E-04	   -1.000000E+00	    1.000816E-03	    1.000000E-03	    1.000000E+03	    5.442893E-06	    1.358023E-03	    3.049488E+01	    1.242515E+06	
   -1.214441E-02	    2.171353E-04	    1.039775E-03	   -1.000000E+00	    1.001205E-03	    1.000000E-03	    1.000000E+03	    8.036379E-06	    1.692857E-03	    3.209393E+01	    1.426974E+06	
   -1.214203E-02	    2.856593E-04	    1.417756E-03	   -1.000000E+00	    1.001733E-03	    1.000000E-03	    1.000000E+03	    1.155333E-05	    2.021475E-03	    3.183259E+01	    1.531846E+06	
   -1.213842E-02	    3.734931E-04	    1.887316E-03	   -1.000000E+00	    1.002443E-03	    1.000000E-03	    1.000000E+03	    1.628367E-05	    2.348969E-03	    3.049614E+01	    1.586477E+06	
   -1.213291E-02	    4.848841E-04	    2.470975E-03	   -1.000000E+00	    1.003386E-03	    1.000000E-03	    1.000000E+03	    2.257564E-05	    2.678715E-03	    2.860589E+01	    1.611464E+06	
   -1.212457E-02	    6.245362E-04	    3.193201E-03	   -1.000000E+00	    1.004624E-03	    1.000000E-03	    1.000000E+03	    3.082888E-05	    3.010942E-03	    2.646608E+01	    1.619342E+06	
   -1.211199E-02	    7.974888E-04	    4.079649E-03	   -1.000000E+00	    1.006223E-03	    1.000000E-03	    1.000000E+03	    4.148427E-05	    3.343454E-03	    2.425213E+01	    1.617163E+06	
   -1.209324E-02	    1.008928E-03	    5.156160E-03	   -1.000000E+00	    1.008251E-03	    1.000000E-03	    1.000000E+03	    5.500742E-05	    3.672569E-03	    2.206791E+01	    1.608617E+06	
   -1.206566E-02	    1.263924E-03	    6.447429E-03	   -1.000000E+00	    1.010780E-03	    1.000000E-03	    1.000000E+03	    7.186537E-05	    3.994000E-03	    1.997740E+01	    1.595419E+06	
   -1.202575E-02	    1.567103E-03	    7.975323E-03	   -1.000000E+00	    1.013875E-03	    1.000000E-03	    1.000000E+03	    9.249750E-05	    4.303603E-03	    1.802092E+01	    1.578144E+06	
   -1.196906E-02	    1.922243E-03	    9.756933E-03	   -1.000000E+00	    1.017592E-03	    1.000000E-03	    1.000000E+03	    1.172821E-04	    4.597942E-03	    1.622325E+01	    1.556776E+06	
   -1.189019E-02	    2.331825E-03	    1.180247E-02	   -1.000000E+00	    1.021975E-03	    1.000000E-03	    1.000000E+03	    1.465005E-04	    4.874658E-03	    1.459795E+01	    1.531145E+06	
   -1.178283E-02	    2.796576E-03	    1.411323E-02	   -1.000000E+00	    1.027045E-03	    1.000000E-03	    1.000000E+03	    1.803022E-04	    5.132637E-03	    1.314990E+01	    1.501283E+06	
   -1.164002E-02	    3.315025E-03	    1.667967E-02	   -1.000000E+00	    1.032800E-03	    1.000000E-03	    1.000000E+03	    2.186699E-04	    5.371823E-03	    1.187673E+01	    1.467633E+06	
   -1.145457E-02	    3.883167E-03	    1.947996E-02	   -1.000000E+00	    1.039208E-03	    1.000000E-03	    1.000000E+03	    2.613847E-04	    5.592732E-03	    1.076987E+01	    1.431060E+06	
   -1.121961E-02	    4.494282E-03	    2.247943E-02	   -1.000000E+00	    1.046200E-03	    1.000000E-03	    1.000000E+03	    3.079993E-04	    5.795983E-03	    9.816279E+00	    1.392717E+06	
   -1.092930E-02	    5.138994E-03	    2.563110E-02	   -1.000000E+00	    1.053674E-03	    1.000000E-03	    1.000000E+03	    3.578287E-04	    5.982047E-03	    9.000508E+00	    1.353856E+06	
   -1.057954E-02	    5.805612E-03	    2.887754E-02	   -1.000000E+00	    1.061495E-03	    1.000000E-03	    1.000000E+03	    4.099674E-04	    6.151240E-03	    8.306509E+00	    1.315656E+06	
   -1.016867E-02	    6.480764E-03	    3.215409E-02	   -1.000000E+00	    1.069500E-03	    1.000000E-03	    1.000000E+03	    4.633362E-04	    6.303812E-03	    7.718852E+00	    1.279117E+06	
   -9.697830E-03	    7.150269E-03	    3.539295E-02	   -1.000000E+00	    1.077513E-03	    1.000000E-03	    1.000000E+03	    5.167542E-04	    6.440068E-03	    7.223362E+00	    1.245001E+06	
   -9.171190E-03	    7.800151E-03	    3.852797E-02	   -1.000000E+00	    1.085354E-03	    1.000000E-03	    1.000000E+03	    5.690277E-04	    6.560465E-03	    6.807355E+00	    1.213823E+06	
   -8.595699E-03	    8.417653E-03	    4.149931E-02	   -1.000000E+00	    1.092856E-03	    1.000000E-03	    1.000000E+03	    6.190417E-04	    6.665659E-03	    6.459646E+00	    1.185873E+06	
   -7.980589E-03	    8.992087E-03	    4.425731E-02	   -1.000000E+00	    1.099876E-03	    1.000000E-03	    1.000000E+03	    6.658406E-04	    6.756508E-03	    6.170450E+00	    1.161250E+06	
   -7.336616E-03	    9.515429E-03	    4.676516E-02	   -1.000000E+00	    1.106303E-03	    1.000000E-03	    1.000000E+03	    7.086858E-04	    6.834053E-03	    5.931239E+00	    1.139902E+06	
   -6.675207E-03	    9.982582E-03	    4.900002E-02	   -1.000000E+00	    1.112063E-03	    1.000000E-03	    1.000000E+03	    7.470854E-04	    6.899462E-03	    5.734594E+00	    1.121668E+06	
   -6.007637E-03	    1.039132E-02	    5.095260E-02	   -1.000000E+00	    1.117119E-03	    1.000000E-03	    1.000000E+03	    7.807939E-04	    6.953976E-03	    5.574071E+00	    1.106316E+06	
   -5.344335E-03	    1.074197E-02	    5.262563E-02	   -1.000000E+00	    1.121468E-03	    1.000000E-03	    1.000000E+03	    8.097889E-04	    6.998855E-03	    5.444083E+00	    1.093571E+06	
   -4.694393E-03	    1.103695E-02	    5.403153E-02	   -1.000000E+00	    1.125135E-03	    1.000000E-03	    1.000000E+03	    8.342314E-04	    7.035327E-03	    5.339795E+00	    1.083140E+06	
   -4.065280E-03	    1.128017E-02	    5.518973E-02	   -1.000000E+00	    1.128163E-03	    1.000000E-03	    1.000000E+03	    8.544190E-04	    7.064554E-03	    5.257037E+00	    1.074729E+06	
   -3.462757E-03	    1.147655E-02	    5.612414E-02	   -1.000000E+00	    1.130611E-03	    1.000000E-03	    1.000000E+03	    8.707395E-04	    7.087607E-03	    5.192226E+00	    1.068060E+06	
   -2.890937E-03	    1.163149E-02	    5.686088E-02	   -1.000000E+00	    1.132544E-03	    1.000000E-03	    1.000000E+03	    8.836284E-04	    7.105457E-03	    5.142293E+00	    1.062870E+06	
   -2.352451E-03	    1.175052E-02	    5.742645E-02	   -1.000000E+00	    1.134030E-03	    1.000000E-03	    1.000000E+03	    8.935358E-04	    7.118961E-03	    5.104624E+00	    1.058925E+06	
   -1.848663E-03	    1.183896E-02	    5.784646E-02	   -1.000000E+00	    1.135135E-03	    1.000000E-03	    1.000000E+03	    9.009010E-04	    7.128872E-03	    5.076998E+00	    1.056013E+06	
   -1.379910E-03	    1.190181E-02	    5.814466E-02	   -1.000000E+00	    1.135920E-03	    1.000000E-03	    1.000000E+03	    9.061352E-04	    7.135839E-03	    5.057542E+00	    1.053951E+06	
   -9.457302E-04	    1.194356E-02	    5.834254E-02	   -1.000000E+00	    1.136442E-03	    1.000000E-03	    1.000000E+03	    9.096118E-04	    7.140417E-03	    5.044680E+00	    1.052581E+06	
   -5.450748E-04	    1.196818E-02	    5.845899E-02	   -1.000000E+00	    1.136749E-03	    1.000000E-03	    1.000000E+03	    9.116610E-04	    7.143077E-03	    5.037091E+00	    1.051766E+06	
   -1.764816E-04	    1.197914E-02	    5.851037E-02	   -1.000000E+00	    1.136885E-03	    1.000000E-03	    1.000000E+03	    9.125692E-04	    7.144212E-03	    5.033677E+00	    1.051390E+06	
    1.764816E-04	    1.197914E-02	    5.851037E-02	   -1.000000E+00	    1.136885E-03	    1.000000E-03	    1.000000E+03	    9.125692E-04	    7.144212E-03	    5.033677E+00	    1.051390E+06	
    5.450748E-04	    1.196818E-02	    5.845899E-02	   -1.000000E+00	    1.136749E-03	    1.000000E-03	    1.000000E+03	    9.116610E-04	    7.143077E-03	    5.037091E+00	    1.051766E+06	
    9.457302E-04	    1.194356E-02	    5.834254E-02	   -1.000000E+00	    1.136442E-03	    1.000000E-03	    1.000000E+03	    9.096118E-04	    7.140417E-03	    5.044680E+00	    1.052581E+06	
    1.379910E-03	    1.190181E-02	    5.814466E-02	   -1.000000E+00	    1.135920E-03	    1.000000E-03	    1.000000E+03	    9.061352E-04	    7.135839E-03	    5.057542E+00	    1.053951E+06	
    1.848663E-03	    1.183896E-02	    5.784646E-02	   -1.000000E+00	    1.135135E-03	    1.000000E-03	    1.000000E+03	    9.009010E-04	    7.128871E-03	    5.076998E+00	    1.056013E+06	
    2.352451E-03	    1.175052E-02	    5.742645E-02	   -1.000000E+00	    1.134030E-03	    1.000000E-03	    1.000000E+03	    8.935358E-04	    7.118961E-03	    5.104624E+00	    1.058924E+06	
    2.890937E-03	    1.163149E-02	    5.686088E-02	   -1.000000E+00	    1.132544E-03	    1.000000E-03	    1.000000E+03	    8.836284E-04	    7.105457E-03	    5.142293E+00	    1.062870E+06	
    3.462757E-03	    1.147655E-02	    5.612414E-02	   -1.000000E+00	    1.130611E-03	    1.000000E-03	    1.000000E+03	    8.707395E-04	    7.087607E-03	    5.192226E+00	    1.068060E+06	
    4.065280E-03	    1.128017E-02	    5.518973E-02	   -1.000000E+00	    1.128163E-03	    1.000000E-03	    1.000000E+03	    8.544190E-04	    7.064553E-03	    5.257037E+00	    1.074729E+06	
    4.694393E-03	    1.103695E-02	    5.403153E-02	   -1.000000E+00	    1.125135E-03	    1.000000E-03	    1.000000E+03	    8.342313E-04	    7.035327E-03	    5.339794E+00	    1.083140E+06	
    5.344335E-03	    1.074197E-02	    5.262563E-02	   -1.000000E+00	    1.121468E-03	    1.000000E-03	    1.000000E+03	    8.097888E-04	    6.998855E-03	    5.444082E+00	    1.093571E+06	
    6.007637E-03	    1.039132E-02	    5.095260E-02	   -1.000000E+00	    1.117119E-03	    1.000000E-03	    1.000000E+03	    7.807939E-04	    6.953976E-03	    5.574071E+00	    1.106316E+06	
    6.675207E-03	    9.982582E-03	    4.900002E-02	   -1.000000E+00	    1.112063E-03	    1.000000E-03	    1.000000E+03	    7.470853E-04	    6.899461E-03	    5.734594E+00	    1.121668E+06	
    7.336616E-03	    9.515429E-03	    4.676516E-02	   -1.000000E+00	    1.106303E-03	    1.000000E-03	    1.000000E+03	    7.086858E-04	    6.834052E-03	    5.931239E+00	    1.139902E+06	
    7.980589E-03	    8.992087E-03	    4.425731E-02	   -1.000000E+00	    1.099876E-03	    1.000000E-03	    1.000000E+03	    6.658405E-04	    6.756508E-03	    6.170450E+00	    1.161250E+06	
    8.595699E-03	    8.417653E-03	    4.149931E-02	   -1.000000E+00	    1.092856E-03	    1.000000E-03	    1.000000E+03	    6.190417E-04	    6.665658E-03	    6.459646E+00	    1.185873E+06	
    9.171190E-03	    7.800151E-03	    3.852797E-02	   -1.000000E+00	    1.085354E-03	    1.000000E-03	    1.000000E+03	    5.690277E-04	    6.560465E-03	    6.807355E+00	    1.213823E+06	
    9.697830E-03	    7.150269E-03	    3.539295E-02	   -1.000000E+00	    1.077513E-03	    1.000000E-03	    1.000000E+03	    5.167542E-04	    6.440068E-03	    7.223362E+00	    1.245001E+06	
    1.016867E-02	    6.480764E-03	    3.215409E-02	   -1.000000E+00	    1.069500E-03	    1.000000E-03	    1.000000E+03	    4.633362E-04	    6.303811E-03	    7.718852E+00	    1.279117E+06	
    1.057954E-02	    5.805612E-03	    2.887754E-02	   -1.000000E+00	    1.061495E-03	    1.000000E-03	    1.000000E+03	    4.099674E-04	    6.151240E-03	    8.306508E+00	    1.315656E+06	
    1.092930E-02	    5.138994E-03	    2.563109E-02	   -1.000000E+00	    1.053674E-03	    1.000000E-03	    1.000000E+03	    3.578287E-04	    5.982047E-03	    9.000508E+00	    1.353856E+06	
    1.121961E-02	    4.494282E-03	    2.247943E-02	   -1.000000E+00	    1.046200E-03	    1.000000E-03	    1.000000E+03	    3.079993E-04	    5.795982E-03	    9.816278E+00	    1.392717E+06	
    1.145457E-02	    3.883167E-03	    1.947996E-02	   -1.000000E+00	    1.039208E-03	    1.000000E-03	    1.000000E+03	    2.613847E-04	    5.592732E-03	    1.076987E+01	    1.431059E+06	
    1.164002E-02	    3.315025E-03	    1.667967E-02	   -1.000000E+00	    1.032800E-03	    1.000000E-03	    1.000000E+03	    2.186699E-04	    5.371822E-03	    1.187673E+01	    1.467632E+06	
    1.178283E-02	    2.796576E-03	    1.411323E-02	   -1.000000E+00	    1.027045E-03	    1.000000E-03	    1.000000E+03	    1.803022E-04	    5.132636E-03	    1.314990E+01	    1.501283E+06	
    1.189019E-02	    2.331825E-03	    1.180247E-02	   -1.000000E+00	    1.021975E-03	    1.000000E-03	    1.000000E+03	    1.465005E-04	    4.874658E-03	    1.459794E+01	    1.531145E+06	
    1.196906E-02	    1.922243E-03	    9.756932E-03	   -1.000000E+00	    1.017592E-03	    1.000000E-03	    1.000000E+03	    1.172820E-04	    4.597941E-03	    1.622325E+01	    1.556776E+06	
    1.202575E-02	    1.567103E-03	    7.975322E-03	   -1.000000E+00	    1.013875E-03	    1.000000E-03	    1.000000E+03	    9.249749E-05	    4.303602E-03	    1.802091E+01	    1.578143E+06	
    1.206566E-02	    1.263924E-03	    6.447428E-03	   -1.000000E+00	    1.010780E-03	    1.000000E-03	    1.000000E+03	    7.186536E-05	    3.994000E-03	    1.997740E+01	    1.595419E+06	
    1.209324E-02	    1.008928E-03	    5.156160E-03	   -1.000000E+00	    1.008251E-03	    1.000000E-03	    1.000000E+03	    5.500742E-05	    3.672569E-03	    2.206791E+01	    1.608617E+06	
    1.211199E-02	    7.974888E-04	    4.079648E-03	   -1.000000E+00	    1.006223E-03	    1.000000E-03	    1.000000E+03	    4.148427E-05	    3.343454E-03	    2.425212E+01	    1.617162E+06	
    1.212457E-02	    6.245362E-04	    3.193201E-03	   -1.000000E+00	    1.004624E-03	    1.000000E-03	    1.000000E+03	    3.082887E-05	    3.010941E-03	    2.646607E+01	    1.619342E+06	
    1.213291E-02	    4.848841E-04	    2.470975E-03	   -1.000000E+00	    1.003386E-03	    1.000000E-03	    1.000000E+03	    2.257564E-05	    2.678714E-03	    2.860588E+01	    1.611463E+06	
    1.213842E-02	    3.734931E-04	    1.887315E-03	   -1.000000E+00	    1.002443E-03	    1.000000E-03	    1.000000E+03	    1.628367E-05	    2.348969E-03	    3.049613E+01	    1.586476E+06	
    1.214203E-02	    2.856593E-04	    1.417756E-03	   -1.000000E+00	    1.001733E-03	    1.000000E-03	    1.000000E+03	    1.155333E-05	    2.021474E-03	    3.183258E+01	    1.531846E+06	