Title="Fields"
Variables="X""Y""Velocity""Phi""Effective Viscosity""Dynamic Viscosity""Density"
Zone I=52 J=52 F=POINT
   -2.799687E-02	    1.387885E-04	    0.000000E+00	    0.000000E+00	    1.000000E-03	    1.000000E-03	    1.000000E+03	
   -2.799630E-02	    1.748458E-04	    0.000000E+00	    0.000000E+00	    1.000000E-03	    1.000000E-03	    1.000000E+03	
   -2.799446E-02	    2.768109E-04	    0.000000E+00	    0.000000E+00	    1.000000E-03	    1.000000E-03	    1.000000E+03	
   -2.799087E-02	    4.350465E-04	    0.000000E+00	    0.000000E+00	    1.000000E-03	    1.000000E-03	    1.000000E+03	
   -2.798369E-02	    6.756742E-04	    0.000000E+00	    0.000000E+00	    1.000000E-03	    1.000000E-03	    1.000000E+03	
   -2.796921E-02	    1.032769E-03	    0.000000E+00	    0.000000E+00	    1.000000E-03	    1.000000E-03	    1.000000E+03	
   -2.794026E-02	    1.548046E-03	    0.000000E+00	    0.000000E+00	    1.000000E-03	    1.000000E-03	    1.000000E+03	
   -2.788376E-02	    2.268735E-03	    0.000000E+00	    0.000000E+00	    1.000000E-03	    1.000000E-03	    1.000000E+03	
   -2.777747E-02	    3.243039E-03	    0.000000E+00	    0.000000E+00	    1.000000E-03	    1.000000E-03	    1.000000E+03	
   -2.758674E-02	    4.512859E-03	    0.000000E+00	    0.000000E+00	    1.000000E-03	    1.000000E-03	    1.000000E+03	
   -2.726249E-02	    6.104069E-03	    0.000000E+00	    0.000000E+00	    1.000000E-03	    1.000000E-03	    1.000000E+03	
   -2.674289E-02	    8.015622E-03	    0.000000E+00	    0.000000E+00	    1.000000E-03	    1.000000E-03	    1.000000E+03	
   -2.596066E-02	    1.021016E-02	    0.000000E+00	    0.000000E+00	    1.000000E-03	    1.000000E-03	    1.000000E+03	
   -2.485650E-02	    1.261006E-02	    0.000000E+00	    0.000000E+00	    1.000000E-03	    1.000000E-03	    1.000000E+03	
   -2.339591E-02	    1.510280E-02	    0.000000E+00	    0.000000E+00	    1.000000E-03	    1.000000E-03	    1.000000E+03	
   -2.158344E-02	    1.755688E-02	    0.000000E+00	    0.000000E+00	    1.000000E-03	    1.000000E-03	    1.000000E+03	
   -1.946769E-02	    1.984481E-02	    0.000000E+00	    0.000000E+00	    1.000000E-03	    1.000000E-03	    1.000000E+03	
   -1.713393E-02	    2.186559E-02	    0.000000E+00	    0.000000E+00	    1.000000E-03	    1.000000E-03	    1.000000E+03	
   -1.468704E-02	    2.355882E-02	    0.000000E+00	    0.000000E+00	    1.000000E-03	    1.000000E-03	    1.000000E+03	
   -1.223173E-02	    2.490697E-02	    0.000000E+00	    0.000000E+00	    1.000000E-03	    1.000000E-03	    1.000000E+03	
   -9.856887E-03	    2.592764E-02	    0.000000E+00	    0.000000E+00	    1.000000E-03	    1.000000E-03	    1.000000E+03	
   -7.627427E-03	    2.666106E-02	    0.000000E+00	    0.000000E+00	    1.000000E-03	    1.000000E-03	    1.000000E+03	
   -5.583228E-03	    2.715768E-02	    0.000000E+00	    0.000000E+00	    1.000000E-03	    1.000000E-03	    1.000000E+03	
   -3.742654E-03	    2.746871E-02	    0.000000E+00	    0.000000E+00	    1.000000E-03	    1.000000E-03	    1.000000E+03	
   -2.107972E-03	    2.764051E-02	    0.000000E+00	    0.000000E+00	    1.000000E-03	    1.000000E-03	    1.000000E+03	
   -6.707589E-04	    2.771194E-02	    0.000000E+00	    0.000000E+00	    1.000000E-03	    1.000000E-03	    1.000000E+03	
    6.707589E-04	    2.771194E-02	    0.000000E+00	    0.000000E+00	    1.000000E-03	    1.000000E-03	    1.000000E+03	
    2.107972E-03	    2.764051E-02	    0.000000E+00	    0.000000E+00	    1.000000E-03	    1.000000E-03	    1.000000E+03	
    3.742654E-03	    2.746871E-02	    0.000000E+00	    0.000000E+00	    1.000000E-03	    1.000000E-03	    1.000000E+03	
    5.583228E-03	    2.715768E-02	    0.000000E+00	    0.000000E+00	    1.000000E-03	    1.000000E-03	    1.000000E+03	
    7.627427E-03	    2.666106E-02	    0.000000E+00	    0.000000E+00	    1.000000E-03	    1.000000E-03	    1.000000E+03	
    9.856887E-03	    2.592764E-02	    0.000000E+00	    0.000000E+00	    1.000000E-03	    1.000000E-03	    1.000000E+03	
    1.223173E-02	    2.490697E-02	    0.000000E+00	    0.000000E+00	    1.000000E-03	    1.000000E-03	    1.000000E+03	
    1.468704E-02	    2.355882E-02	    0.000000E+00	    0.000000E+00	    1.000000E-03	    1.000000E-03	    1.000000E+03	
    1.713393E-02	    2.186559E-02	    0.000000E+00	    0.000000E+00	    1.000000E-03	    1.000000E-03	    1.000000E+03	
    1.946769E-02	    1.984481E-02	    0.000000E+00	    0.000000E+00	    1.000000E-03	    1.000000E-03	    1.000000E+03	
    2.158344E-02	    1.755688E-02	    0.000000E+00	    0.000000E+00	    1.000000E-03	    1.000000E-03	    1.000000E+03	
    2.339591E-02	    1.510280E-02	    0.000000E+00	    0.000000E+00	    1.000000E-03	    1.000000E-03	    1.000000E+03	
    2.485650E-02	    1.261006E-02	    0.000000E+00	    0.000000E+00	    1.000000E-03	    1.000000E-03	    1.000000E+03	
    2.596066E-02	    1.021016E-02	    0.000000E+00	    0.000000E+00	    1.000000E-03	    1.000000E-03	    1.000000E+03	
    2.674289E-02	    8.015622E-03	    0.000000E+00	    0.000000E+00	    1.000000E-03	    1.000000E-03	    1.000000E+03	
    2.726249E-02	    6.104069E-03	    0.000000E+00	    0.000000E+00	    1.000000E-03	    1.000000E-03	    1.000000E+03	
    2.758674E-02	    4.512859E-03	    0.000000E+00	    0.000000E+00	    1.000000E-03	    1.000000E-03	    1.000000E+03	
    2.777747E-02	    3.243039E-03	    0.000000E+00	    0.000000E+00	    1.000000E-03	    1.000000E-03	    1.000000E+03	
    2.788376E-02	    2.268735E-03	    0.000000E+00	    0.000000E+00	    1.000000E-03	    1.000000E-03	    1.000000E+03	
    2.794026E-02	    1.548046E-03	    0.000000E+00	    0.000000E+00	    1.000000E-03	    1.000000E-03	    1.000000E+03	
    2.796921E-02	    1.032769E-03	    0.000000E+00	    0.000000E+00	    1.000000E-03	    1.000000E-03	    1.000000E+03	
    2.798369E-02	    6.756742E-04	    0.000000E+00	    0.000000E+00	    1.000000E-03	    1.000000E-03	    1.000000E+03	
    2.799087E-02	    4.350465E-04	    0.000000E+00	    0.000000E+00	    1.000000E-03	    1.000000E-03	    1.000000E+03	
    2.799446E-02	    2.768109E-04	    0.000000E+00	    0.000000E+00	    1.000000E-03	    1.000000E-03	    1.000000E+03	
    2.799630E-02	    1.748458E-04	    0.000000E+00	    0.000000E+00	    1.000000E-03	    1.000000E-03	    1.000000E+03	
    2.799687E-02	    1.387885E-04	    0.000000E+00	    0.000000E+00	    1.000000E-03	    1.000000E-03	    1.000000E+03	
   -2.799593E-02	    1.387713E-04	    0.000000E+00	    0.000000E+00	    1.000000E-03	    1.000000E-03	    1.000000E+03	
   -2.799512E-02	    1.748226E-04	    3.146777E-05	   -1.000000E+00	    1.000000E-03	    1.640000E-03	    7.900000E+02	
   -2.799259E-02	    2.767673E-04	    1.004295E-04	   -1.000000E+00	    1.000000E-03	    1.640000E-03	    7.900000E+02	
   -2.798793E-02	    4.349614E-04	    1.890382E-04	   -1.000000E+00	    1.000000E-03	    1.640000E-03	    7.900000E+02	
   -2.797912E-02	    6.755028E-04	    3.126291E-04	   -1.000000E+00	    1.000000E-03	    1.640000E-03	    7.900000E+02	
   -2.796223E-02	    1.032418E-03	    4.893726E-04	   -1.000000E+00	    1.000000E-03	    1.640000E-03	    7.900000E+02	
   -2.792982E-02	    1.547327E-03	    7.405243E-04	   -1.000000E+00	    1.000000E-03	    1.640000E-03	    7.900000E+02	
   -2.786849E-02	    2.267288E-03	    1.089659E-03	   -1.000000E+00	    1.000000E-03	    1.640000E-03	    7.900000E+02	
   -2.775574E-02	    3.240208E-03	    1.560618E-03	   -1.000000E+00	    1.000000E-03	    1.640000E-03	    7.900000E+02	
   -2.755671E-02	    4.507539E-03	    2.174043E-03	   -1.000000E+00	    1.000000E-03	    1.640000E-03	    7.900000E+02	
   -2.722236E-02	    6.094533E-03	    2.942671E-03	   -1.000000E+00	    1.000000E-03	    1.640000E-03	    7.900000E+02	
   -2.669123E-02	    7.999412E-03	    3.866055E-03	   -1.000000E+00	    1.000000E-03	    1.640000E-03	    7.900000E+02	
   -2.589681E-02	    1.018413E-02	    4.926040E-03	   -1.000000E+00	    1.000000E-03	    1.640000E-03	    7.900000E+02	
   -2.478104E-02	    1.257064E-02	    6.084909E-03	   -1.000000E+00	    1.000000E-03	    1.640000E-03	    7.900000E+02	
   -2.331089E-02	    1.504656E-02	    7.288068E-03	   -1.000000E+00	    1.000000E-03	    1.640000E-03	    7.900000E+02	
   -2.149232E-02	    1.748118E-02	    8.471827E-03	   -1.000000E+00	    1.000000E-03	    1.640000E-03	    7.900000E+02	
   -1.937484E-02	    1.974838E-02	    9.574596E-03	   -1.000000E+00	    1.000000E-03	    1.640000E-03	    7.900000E+02	
   -1.704394E-02	    2.174877E-02	    1.054774E-02	   -1.000000E+00	    1.000000E-03	    1.640000E-03	    7.900000E+02	
   -1.460396E-02	    2.342343E-02	    1.136237E-02	   -1.000000E+00	    1.000000E-03	    1.640000E-03	    7.900000E+02	
   -1.215860E-02	    2.475582E-02	    1.201032E-02	   -1.000000E+00	    1.000000E-03	    1.640000E-03	    7.900000E+02	
   -9.795556E-03	    2.576398E-02	    1.250034E-02	   -1.000000E+00	    1.000000E-03	    1.640000E-03	    7.900000E+02	
   -7.578634E-03	    2.648812E-02	    1.285202E-02	   -1.000000E+00	    1.000000E-03	    1.640000E-03	    7.900000E+02	
   -5.546851E-03	    2.697829E-02	    1.308978E-02	   -1.000000E+00	    1.000000E-03	    1.640000E-03	    7.900000E+02	
   -3.717992E-03	    2.728524E-02	    1.323833E-02	   -1.000000E+00	    1.000000E-03	    1.640000E-03	    7.900000E+02	
   -2.093995E-03	    2.745476E-02	    1.332000E-02	   -1.000000E+00	    1.000000E-03	    1.640000E-03	    7.900000E+02	
   -6.663000E-04	    2.752523E-02	    1.335345E-02	   -1.000000E+00	    1.000000E-03	    1.640000E-03	    7.900000E+02	
    6.663000E-04	    2.752523E-02	    1.335345E-02	   -1.000000E+00	    1.000000E-03	    1.640000E-03	    7.900000E+02	
    2.093995E-03	    2.745476E-02	    1.332000E-02	   -1.000000E+00	    1.000000E-03	    1.640000E-03	    7.900000E+02	
    3.717992E-03	    2.728524E-02	    1.323833E-02	   -1.000000E+00	    1.000000E-03	    1.640000E-03	    7.900000E+02	
    5.546851E-03	    2.697829E-02	    1.308978E-02	   -1.000000E+00	    1.000000E-03	    1.640000E-03	    7.900000E+02	
    7.578634E-03	    2.648812E-02	    1.285202E-02	   -1.000000E+00	    1.000000E-03	    1.640000E-03	    7.900000E+02	
    9.795556E-03	    2.576398E-02	    1.250034E-02	   -1.000000E+00	    1.000000E-03	    1.640000E-03	    7.900000E+02	
    1.215860E-02	    2.475582E-02	    1.201032E-02	   -1.000000E+00	    1.000000E-03	    1.640000E-03	    7.900000E+02	
    1.460396E-02	    2.342343E-02	    1.136237E-02	   -1.000000E+00	    1.000000E-03	    1.640000E-03	    7.900000E+02	
    1.704394E-02	    2.174877E-02	    1.054774E-02	   -1.000000E+00	    1.000000E-03	    1.640000E-03	    7.900000E+02	
    1.937484E-02	    1.974838E-02	    9.574596E-03	   -1.000000E+00	    1.000000E-03	    1.640000E-03	    7.900000E+02	
    2.149232E-02	    1.748118E-02	    8.471827E-03	   -1.000000E+00	    1.000000E-03	    1.640000E-03	    7.900000E+02	
    2.331089E-02	    1.504656E-02	    7.288068E-03	   -1.000000E+00	    1.000000E-03	    1.640000E-03	    7.900000E+02	
    2.478104E-02	    1.257064E-02	    6.084909E-03	   -1.000000E+00	    1.000000E-03	    1.640000E-03	    7.900000E+02	
    2.589681E-02	    1.018413E-02	    4.926040E-03	   -1.000000E+00	    1.000000E-03	    1.640000E-03	    7.900000E+02	
    2.669123E-02	    7.999412E-03	    3.866055E-03	   -1.000000E+00	    1.000000E-03	    1.640000E-03	    7.900000E+02	
    2.722236E-02	    6.094533E-03	    2.942671E-03	   -1.000000E+00	    1.000000E-03	    1.640000E-03	    7.900000E+02	
    2.755671E-02	    4.507539E-03	    2.174043E-03	   -1.000000E+00	    1.000000E-03	    1.640000E-03	    7.900000E+02	
    2.775574E-02	    3.240208E-03	    1.560618E-03	   -1.000000E+00	    1.000000E-03	    1.640000E-03	    7.900000E+02	
    2.786849E-02	    2.267288E-03	    1.089659E-03	   -1.000000E+00	    1.000000E-03	    1.640000E-03	    7.900000E+02	
    2.792982E-02	    1.547327E-03	    7.405243E-04	   -1.000000E+00	    1.000000E-03	    1.640000E-03	    7.900000E+02	
    2.796223E-02	    1.032418E-03	    4.893726E-04	   -1.000000E+00	    1.000000E-03	    1.640000E-03	    7.900000E+02	
    2.797912E-02	    6.755028E-04	    3.126291E-04	   -1.000000E+00	    1.000000E-03	    1.640000E-03	    7.900000E+02	
    2.798793E-02	    4.349614E-04	    1.890382E-04	   -1.000000E+00	    1.000000E-03	    1.640000E-03	    7.900000E+02	
    2.799259E-02	    2.767673E-04	    1.004295E-04	   -1.000000E+00	    1.000000E-03	    1.640000E-03	    7.900000E+02	
    2.799512E-02	    1.748226E-04	    3.146777E-05	   -1.000000E+00	    1.000000E-03	    1.640000E-03	    7.900000E+02	
    2.799593E-02	    1.387713E-04	    0.000000E+00	    0.000000E+00	    1.000000E-03	    1.000000E-03	    1.000000E+03	
   -2.799376E-02	    1.387071E-04	    0.000000E+00	    0.000000E+00	    1.000000E-03	    1.000000E-03	    1.000000E+03	
   -2.799239E-02	    1.747383E-04	    1.042563E-04	   -1.000000E+00	    1.000000E-03	    1.640000E-03	    7.900000E+02	
   -2.798826E-02	    2.766181E-04	    3.327561E-04	   -1.000000E+00	    1.000000E-03	    1.640000E-03	    7.900000E+02	
   -2.798113E-02	    4.346884E-04	    6.262973E-04	   -1.000000E+00	    1.000000E-03	    1.640000E-03	    7.900000E+02	
   -2.796856E-02	    6.749881E-04	    1.035608E-03	   -1.000000E+00	    1.000000E-03	    1.640000E-03	    7.900000E+02	
   -2.794611E-02	    1.031426E-03	    1.620705E-03	   -1.000000E+00	    1.000000E-03	    1.640000E-03	    7.900000E+02	
   -2.790569E-02	    1.545396E-03	    2.451627E-03	   -1.000000E+00	    1.000000E-03	    1.640000E-03	    7.900000E+02	
   -2.783322E-02	    2.263547E-03	    3.605750E-03	   -1.000000E+00	    1.000000E-03	    1.640000E-03	    7.900000E+02	
   -2.770557E-02	    3.233108E-03	    5.160802E-03	   -1.000000E+00	    1.000000E-03	    1.640000E-03	    7.900000E+02	
   -2.748747E-02	    4.494483E-03	    7.183204E-03	   -1.000000E+00	    1.000000E-03	    1.640000E-03	    7.900000E+02	
   -2.712997E-02	    6.071510E-03	    9.712432E-03	   -1.000000E+00	    1.000000E-03	    1.640000E-03	    7.900000E+02	
   -2.657244E-02	    7.960749E-03	    1.274377E-02	   -1.000000E+00	    1.000000E-03	    1.640000E-03	    7.900000E+02	
   -2.575027E-02	    1.012260E-02	    1.621398E-02	   -1.000000E+00	    1.000000E-03	    1.640000E-03	    7.900000E+02	
   -2.460818E-02	    1.247815E-02	    1.999628E-02	   -1.000000E+00	    1.000000E-03	    1.640000E-03	    7.900000E+02	
   -2.311652E-02	    1.491536E-02	    2.391030E-02	   -1.000000E+00	    1.000000E-03	    1.640000E-03	    7.900000E+02	
   -2.128440E-02	    1.730540E-02	    2.774849E-02	   -1.000000E+00	    1.000000E-03	    1.640000E-03	    7.900000E+02	
   -1.916336E-02	    1.952531E-02	    3.131275E-02	   -1.000000E+00	    1.000000E-03	    1.640000E-03	    7.900000E+02	
   -1.683928E-02	    2.147936E-02	    3.444898E-02	   -1.000000E+00	    1.000000E-03	    1.640000E-03	    7.900000E+02	
   -1.441527E-02	    2.311190E-02	    3.706781E-02	   -1.000000E+00	    1.000000E-03	    1.640000E-03	    7.900000E+02	
   -1.199270E-02	    2.440863E-02	    3.914652E-02	   -1.000000E+00	    1.000000E-03	    1.640000E-03	    7.900000E+02	
   -9.656529E-03	    2.538855E-02	    4.071606E-02	   -1.000000E+00	    1.000000E-03	    1.640000E-03	    7.900000E+02	
   -7.468092E-03	    2.609172E-02	    4.184114E-02	   -1.000000E+00	    1.000000E-03	    1.640000E-03	    7.900000E+02	
   -5.464469E-03	    2.656739E-02	    4.260110E-02	   -1.000000E+00	    1.000000E-03	    1.640000E-03	    7.900000E+02	
   -3.662154E-03	    2.686512E-02	    4.307565E-02	   -1.000000E+00	    1.000000E-03	    1.640000E-03	    7.900000E+02	
   -2.062354E-03	    2.702951E-02	    4.333640E-02	   -1.000000E+00	    1.000000E-03	    1.640000E-03	    7.900000E+02	
   -6.562066E-04	    2.709784E-02	    4.344314E-02	   -1.000000E+00	    1.000000E-03	    1.640000E-03	    7.900000E+02	
    6.562066E-04	    2.709784E-02	    4.344314E-02	   -1.000000E+00	    1.000000E-03	    1.640000E-03	    7.900000E+02	
    2.062354E-03	    2.702951E-02	    4.333640E-02	   -1.000000E+00	    1.000000E-03	    1.640000E-03	    7.900000E+02	
    3.662154E-03	    2.686512E-02	    4.307565E-02	   -1.000000E+00	    1.000000E-03	    1.640000E-03	    7.900000E+02	
    5.464469E-03	    2.656739E-02	    4.260110E-02	   -1.000000E+00	    1.000000E-03	    1.640000E-03	    7.900000E+02	
    7.468092E-03	    2.609172E-02	    4.184114E-02	   -1.000000E+00	    1.000000E-03	    1.640000E-03	    7.900000E+02	
    9.656529E-03	    2.538855E-02	    4.071606E-02	   -1.000000E+00	    1.000000E-03	    1.640000E-03	    7.900000E+02	
    1.199270E-02	    2.440863E-02	    3.914652E-02	   -1.000000E+00	    1.000000E-03	    1.640000E-03	    7.900000E+02	
    1.441527E-02	    2.311190E-02	    3.706781E-02	   -1.000000E+00	    1.000000E-03	    1.640000E-03	    7.900000E+02	
    1.683928E-02	    2.147936E-02	    3.444898E-02	   -1.000000E+00	    1.000000E-03	    1.640000E-03	    7.900000E+02	
    1.916336E-02	    1.952531E-02	    3.131275E-02	   -1.000000E+00	    1.000000E-03	    1.640000E-03	    7.900000E+02	
    2.128440E-02	    1.730540E-02	    2.774849E-02	   -1.000000E+00	    1.000000E-03	    1.640000E-03	    7.900000E+02	
    2.311652E-02	    1.491536E-02	    2.391030E-02	   -1.000000E+00	    1.000000E-03	    1.640000E-03	    7.900000E+02	
    2.460818E-02	    1.247815E-02	    1.999628E-02	   -1.000000E+00	    1.000000E-03	    1.640000E-03	    7.900000E+02	
    2.575027E-02	    1.012260E-02	    1.621398E-02	   -1.000000E+00	    1.000000E-03	    1.640000E-03	    7.900000E+02	
    2.657244E-02	    7.960749E-03	    1.274377E-02	   -1.000000E+00	    1.000000E-03	    1.640000E-03	    7.900000E+02	
    2.712997E-02	    6.071510E-03	    9.712432E-03	   -1.000000E+00	    1.000000E-03	    1.640000E-03	    7.900000E+02	
    2.748747E-02	    4.494483E-03	    7.183204E-03	   -1.000000E+00	    1.000000E-03	    1.640000E-03	    7.900000E+02	
    2.770557E-02	    3.233108E-03	    5.160802E-03	   -1.000000E+00	    1.000000E-03	    1.640000E-03	    7.900000E+02	
    2.783322E-02	    2.263547E-03	    3.605750E-03	   -1.000000E+00	    1.000000E-03	    1.640000E-03	    7.900000E+02	
    2.790569E-02	    1.545396E-03	    2.451627E-03	   -1.000000E+00	    1.000000E-03	    1.640000E-03	    7.900000E+02	
    2.794611E-02	    1.031426E-03	    1.620705E-03	   -1.000000E+00	    1.000000E-03	    1.640000E-03	    7.900000E+02	
    2.796856E-02	    6.749881E-04	    1.035608E-03	   -1.000000E+00	    1.000000E-03	    1.640000E-03	    7.900000E+02	
    2.798113E-02	    4.346884E-04	    6.262973E-04	   -1.000000E+00	    1.000000E-03	    1.640000E-03	    7.900000E+02	
    2.798826E-02	    2.766181E-04	    3.327561E-04	   -1.000000E+00	    1.000000E-03	    1.640000E-03	    7.900000E+02	
    2.799239E-02	    1.747383E-04	    1.042563E-04	   -1.000000E+00	    1.000000E-03	    1.640000E-03	    7.900000E+02	
    2.799376E-02	    1.387071E-04	    0.000000E+00	    0.000000E+00	    1.000000E-03	    1.000000E-03	    1.000000E+03	
   -2.799092E-02	    1.385718E-04	    0.000000E+00	    0.000000E+00	    1.000000E-03	    1.000000E-03	    1.000000E+03	
   -2.798881E-02	    1.745631E-04	    1.994868E-04	   -1.000000E+00	    1.000000E-03	    1.640000E-03	    7.900000E+02	
   -2.798260E-02	    2.763203E-04	    6.367463E-04	   -1.000000E+00	    1.000000E-03	    1.640000E-03	    7.900000E+02	
   -2.797223E-02	    4.341703E-04	    1.198350E-03	   -1.000000E+00	    1.000000E-03	    1.640000E-03	    7.900000E+02	
   -2.795476E-02	    6.740650E-04	    1.981193E-03	   -1.000000E+00	    1.000000E-03	    1.640000E-03	    7.900000E+02	
   -2.792504E-02	    1.029747E-03	    3.099724E-03	   -1.000000E+00	    1.000000E-03	    1.640000E-03	    7.900000E+02	
   -2.787417E-02	    1.542300E-03	    4.687150E-03	   -1.000000E+00	    1.000000E-03	    1.640000E-03	    7.900000E+02	
   -2.778720E-02	    2.257829E-03	    6.889990E-03	   -1.000000E+00	    1.000000E-03	    1.640000E-03	    7.900000E+02	
   -2.764019E-02	    3.222657E-03	    9.854330E-03	   -1.000000E+00	    1.000000E-03	    1.640000E-03	    7.900000E+02	
   -2.739738E-02	    4.475835E-03	    1.370316E-02	   -1.000000E+00	    1.000000E-03	    1.640000E-03	    7.900000E+02	
   -2.700998E-02	    6.039373E-03	    1.850639E-02	   -1.000000E+00	    1.000000E-03	    1.640000E-03	    7.900000E+02	
   -2.641857E-02	    7.907730E-03	    2.424836E-02	   -1.000000E+00	    1.000000E-03	    1.640000E-03	    7.900000E+02	
   -2.556096E-02	    1.003940E-02	    3.080192E-02	   -1.000000E+00	    1.000000E-03	    1.640000E-03	    7.900000E+02	
   -2.438555E-02	    1.235445E-02	    3.792094E-02	   -1.000000E+00	    1.000000E-03	    1.640000E-03	    7.900000E+02	
   -2.286698E-02	    1.474145E-02	    4.526168E-02	   -1.000000E+00	    1.000000E-03	    1.640000E-03	    7.900000E+02	
   -2.101827E-02	    1.707409E-02	    5.243441E-02	   -1.000000E+00	    1.000000E-03	    1.640000E-03	    7.900000E+02	
   -1.889346E-02	    1.923347E-02	    5.907239E-02	   -1.000000E+00	    1.000000E-03	    1.640000E-03	    7.900000E+02	
   -1.657874E-02	    2.112854E-02	    6.489507E-02	   -1.000000E+00	    1.000000E-03	    1.640000E-03	    7.900000E+02	
   -1.417557E-02	    2.270771E-02	    6.974410E-02	   -1.000000E+00	    1.000000E-03	    1.640000E-03	    7.900000E+02	
   -1.178228E-02	    2.395941E-02	    7.358459E-02	   -1.000000E+00	    1.000000E-03	    1.640000E-03	    7.900000E+02	
   -9.480426E-03	    2.490375E-02	    7.647938E-02	   -1.000000E+00	    1.000000E-03	    1.640000E-03	    7.900000E+02	
   -7.328197E-03	    2.558057E-02	    7.855175E-02	   -1.000000E+00	    1.000000E-03	    1.640000E-03	    7.900000E+02	
   -5.360277E-03	    2.603803E-02	    7.995027E-02	   -1.000000E+00	    1.000000E-03	    1.640000E-03	    7.900000E+02	
   -3.591559E-03	    2.632421E-02	    8.082298E-02	   -1.000000E+00	    1.000000E-03	    1.640000E-03	    7.900000E+02	
   -2.022360E-03	    2.648216E-02	    8.130227E-02	   -1.000000E+00	    1.000000E-03	    1.640000E-03	    7.900000E+02	
   -6.434495E-04	    2.654781E-02	    8.149836E-02	   -1.000000E+00	    1.000000E-03	    1.640000E-03	    7.900000E+02	
    6.434495E-04	    2.654781E-02	    8.149836E-02	   -1.000000E+00	    1.000000E-03	    1.640000E-03	    7.900000E+02	
    2.022360E-03	    2.648216E-02	    8.130227E-02	   -1.000000E+00	    1.000000E-03	    1.640000E-03	    7.900000E+02	
    3.591559E-03	    2.632421E-02	    8.082298E-02	   -1.000000E+00	    1.000000E-03	    1.640000E-03	    7.900000E+02	
    5.360277E-03	    2.603803E-02	    7.995027E-02	   -1.000000E+00	    1.000000E-03	    1.640000E-03	    7.900000E+02	
    7.328197E-03	    2.558057E-02	    7.855175E-02	   -1.000000E+00	    1.000000E-03	    1.640000E-03	    7.900000E+02	
    9.480426E-03	    2.490375E-02	    7.647938E-02	   -1.000000E+00	    1.000000E-03	    1.640000E-03	    7.900000E+02	
    1.178228E-02	    2.395941E-02	    7.358459E-02	   -1.000000E+00	    1.000000E-03	    1.640000E-03	    7.900000E+02	
    1.417557E-02	    2.270771E-02	    6.974410E-02	   -1.000000E+00	    1.000000E-03	    1.640000E-03	    7.900000E+02	
    1.657874E-02	    2.112854E-02	    6.489507E-02	   -1.000000E+00	    1.000000E-03	    1.640000E-03	    7.900000E+02	
    1.889346E-02	    1.923347E-02	    5.907239E-02	   -1.000000E+00	    1.000000E-03	    1.640000E-03	    7.900000E+02	
    2.101827E-02	    1.707409E-02	    5.243441E-02	   -1.000000E+00	    1.000000E-03	    1.640000E-03	    7.900000E+02	
    2.286698E-02	    1.474145E-02	    4.526168E-02	   -1.000000E+00	    1.000000E-03	    1.640000E-03	    7.900000E+02	
    2.438555E-02	    1.235445E-02	    3.792094E-02	   -1.000000E+00	    1.000000E-03	    1.640000E-03	    7.900000E+02	
    2.556096E-02	    1.003940E-02	    3.080192E-02	   -1.000000E+00	    1.000000E-03	    1.640000E-03	    7.900000E+02	
    2.641857E-02	    7.907730E-03	    2.424836E-02	   -1.000000E+00	    1.000000E-03	    1.640000E-03	    7.900000E+02	
    2.700998E-02	    6.039373E-03	    1.850639E-02	   -1.000000E+00	    1.000000E-03	    1.640000E-03	    7.900000E+02	
    2.739738E-02	    4.475835E-03	    1.370316E-02	   -1.000000E+00	    1.000000E-03	    1.640000E-03	    7.900000E+02	
    2.764019E-02	    3.222657E-03	    9.854330E-03	   -1.000000E+00	    1.000000E-03	    1.640000E-03	    7.900000E+02	
    2.778720E-02	    2.257829E-03	    6.889990E-03	   -1.000000E+00	    1.000000E-03	    1.640000E-03	    7.900000E+02	
    2.787417E-02	    1.542300E-03	    4.687150E-03	   -1.000000E+00	    1.000000E-03	    1.640000E-03	    7.900000E+02	
    2.792504E-02	    1.029747E-03	    3.099724E-03	   -1.000000E+00	    1.000000E-03	    1.640000E-03	    7.900000E+02	
    2.795476E-02	    6.740650E-04	    1.981193E-03	   -1.000000E+00	    1.000000E-03	    1.640000E-03	    7.900000E+02	
    2.797223E-02	    4.341703E-04	    1.198350E-03	   -1.000000E+00	    1.000000E-03	    1.640000E-03	    7.900000E+02	
    2.798260E-02	    2.763203E-04	    6.367463E-04	   -1.000000E+00	    1.000000E-03	    1.640000E-03	    7.900000E+02	
    2.798881E-02	    1.745631E-04	    1.994868E-04	   -1.000000E+00	    1.000000E-03	    1.640000E-03	    7.900000E+02	
    2.799092E-02	    1.385718E-04	    0.000000E+00	    0.000000E+00	    1.000000E-03	    1.000000E-03	    1.000000E+03	
   -2.798723E-02	    1.383090E-04	    0.000000E+00	    0.000000E+00	    1.000000E-03	    1.000000E-03	    1.000000E+03	
   -2.798417E-02	    1.742261E-04	    3.230536E-04	   -1.000000E+00	    1.000000E-03	    1.640000E-03	    7.900000E+02	
   -2.797525E-02	    2.757601E-04	    1.031239E-03	   -1.000000E+00	    1.000000E-03	    1.640000E-03	    7.900000E+02	
   -2.796069E-02	    4.332251E-04	    1.940568E-03	   -1.000000E+00	    1.000000E-03	    1.640000E-03	    7.900000E+02	
   -2.793686E-02	    6.724443E-04	    3.207607E-03	   -1.000000E+00	    1.000000E-03	    1.640000E-03	    7.900000E+02	
   -2.789773E-02	    1.026924E-03	    5.016898E-03	   -1.000000E+00	    1.000000E-03	    1.640000E-03	    7.900000E+02	
   -2.783337E-02	    1.537324E-03	    7.582501E-03	   -1.000000E+00	    1.000000E-03	    1.640000E-03	    7.900000E+02	
   -2.772769E-02	    2.249017E-03	    1.113857E-02	   -1.000000E+00	    1.000000E-03	    1.640000E-03	    7.900000E+02	
   -2.755577E-02	    3.207144E-03	    1.591632E-02	   -1.000000E+00	    1.000000E-03	    1.640000E-03	    7.900000E+02	
   -2.728131E-02	    4.449005E-03	    2.210665E-02	   -1.000000E+00	    1.000000E-03	    1.640000E-03	    7.900000E+02	
   -2.685580E-02	    5.994300E-03	    2.981150E-02	   -1.000000E+00	    1.000000E-03	    1.640000E-03	    7.900000E+02	
   -2.622146E-02	    7.834876E-03	    3.899245E-02	   -1.000000E+00	    1.000000E-03	    1.640000E-03	    7.900000E+02	
   -2.531932E-02	    9.926938E-03	    4.943166E-02	   -1.000000E+00	    1.000000E-03	    1.640000E-03	    7.900000E+02	
   -2.410248E-02	    1.218949E-02	    6.072422E-02	   -1.000000E+00	    1.000000E-03	    1.640000E-03	    7.900000E+02	
   -2.255097E-02	    1.451207E-02	    7.231703E-02	   -1.000000E+00	    1.000000E-03	    1.640000E-03	    7.900000E+02	
   -2.068258E-02	    1.677173E-02	    8.359424E-02	   -1.000000E+00	    1.000000E-03	    1.640000E-03	    7.900000E+02	
   -1.855422E-02	    1.885479E-02	    9.398656E-02	   -1.000000E+00	    1.000000E-03	    1.640000E-03	    7.900000E+02	
   -1.625232E-02	    2.067597E-02	    1.030676E-01	   -1.000000E+00	    1.000000E-03	    1.640000E-03	    7.900000E+02	
   -1.387604E-02	    2.218867E-02	    1.106053E-01	   -1.000000E+00	    1.000000E-03	    1.640000E-03	    7.900000E+02	
   -1.151991E-02	    2.338452E-02	    1.165592E-01	   -1.000000E+00	    1.000000E-03	    1.640000E-03	    7.900000E+02	
   -9.261182E-03	    2.428488E-02	    1.210376E-01	   -1.000000E+00	    1.000000E-03	    1.640000E-03	    7.900000E+02	
   -7.154229E-03	    2.492922E-02	    1.242386E-01	   -1.000000E+00	    1.000000E-03	    1.640000E-03	    7.900000E+02	
   -5.230805E-03	    2.536426E-02	    1.263963E-01	   -1.000000E+00	    1.000000E-03	    1.640000E-03	    7.900000E+02	
   -3.503879E-03	    2.563623E-02	    1.277417E-01	   -1.000000E+00	    1.000000E-03	    1.640000E-03	    7.900000E+02	
   -1.972700E-03	    2.578627E-02	    1.284802E-01	   -1.000000E+00	    1.000000E-03	    1.640000E-03	    7.900000E+02	
   -6.276110E-04	    2.584862E-02	    1.287821E-01	   -1.000000E+00	    1.000000E-03	    1.640000E-03	    7.900000E+02	
    6.276110E-04	    2.584862E-02	    1.287821E-01	   -1.000000E+00	    1.000000E-03	    1.640000E-03	    7.900000E+02	
    1.972700E-03	    2.578627E-02	    1.284802E-01	   -1.000000E+00	    1.000000E-03	    1.640000E-03	    7.900000E+02	
    3.503879E-03	    2.563623E-02	    1.277417E-01	   -1.000000E+00	    1.000000E-03	    1.640000E-03	    7.900000E+02	
    5.230805E-03	    2.536426E-02	    1.263963E-01	   -1.000000E+00	    1.000000E-03	    1.640000E-03	    7.900000E+02	
    7.154229E-03	    2.492922E-02	    1.242386E-01	   -1.000000E+00	    1.000000E-03	    1.640000E-03	    7.900000E+02	
    9.261182E-03	    2.428488E-02	    1.210376E-01	   -1.000000E+00	    1.000000E-03	    1.640000E-03	    7.900000E+02	
    1.151991E-02	    2.338452E-02	    1.165592E-01	   -1.000000E+00	    1.000000E-03	    1.640000E-03	    7.900000E+02	
    1.387604E-02	    2.218867E-02	    1.106053E-01	   -1.000000E+00	    1.000000E-03	    1.640000E-03	    7.900000E+02	
    1.625232E-02	    2.067597E-02	    1.030676E-01	   -1.000000E+00	    1.000000E-03	    1.640000E-03	    7.900000E+02	
    1.855422E-02	    1.885479E-02	    9.398656E-02	   -1.000000E+00	    1.000000E-03	    1.640000E-03	    7.900000E+02	
    2.068258E-02	    1.677173E-02	    8.359424E-02	   -1.000000E+00	    1.000000E-03	    1.640000E-03	    7.900000E+02	
    2.255097E-02	    1.451207E-02	    7.231703E-02	   -1.000000E+00	    1.000000E-03	    1.640000E-03	    7.900000E+02	
    2.410248E-02	    1.218949E-02	    6.072422E-02	   -1.000000E+00	    1.000000E-03	    1.640000E-03	    7.900000E+02	
    2.531932E-02	    9.926938E-03	    4.943166E-02	   -1.000000E+00	    1.000000E-03	    1.640000E-03	    7.900000E+02	
    2.622146E-02	    7.834876E-03	    3.899245E-02	   -1.000000E+00	    1.000000E-03	    1.640000E-03	    7.900000E+02	