Title="Fields"
Variables="X""Y""Velocity""Phi""Effective Viscosity""Dynamic Viscosity""Density"
Zone I=82 J=82 F=POINT
   -2.797619E-02	    1.385450E-04	    0.000000E+00	   -1.000000E+00	    1.640000E-03	    1.640000E-03	    7.900000E+02	
   -2.797707E-02	    1.600909E-04	    0.000000E+00	   -1.000000E+00	    1.640000E-03	    1.640000E-03	    7.900000E+02	
   -2.797919E-02	    2.136302E-04	    0.000000E+00	   -1.000000E+00	    1.640000E-03	    1.640000E-03	    7.900000E+02	
   -2.798184E-02	    2.845682E-04	    0.000000E+00	   -1.000000E+00	    1.640000E-03	    1.640000E-03	    7.900000E+02	
   -2.798505E-02	    3.779485E-04	    0.000000E+00	   -1.000000E+00	    1.640000E-03	    1.640000E-03	    7.900000E+02	
   -2.798877E-02	    4.999388E-04	    0.000000E+00	   -1.000000E+00	    1.640000E-03	    1.640000E-03	    7.900000E+02	
   -2.799280E-02	    6.579342E-04	    0.000000E+00	   -1.000000E+00	    1.640000E-03	    1.640000E-03	    7.900000E+02	
   -2.799666E-02	    8.606092E-04	    0.000000E+00	   -1.000000E+00	    1.640000E-03	    1.640000E-03	    7.900000E+02	
   -2.799945E-02	    1.117896E-03	    0.000000E+00	   -1.000000E+00	    1.640000E-03	    1.640000E-03	    7.900000E+02	
   -2.799961E-02	    1.440862E-03	    0.000000E+00	   -1.000000E+00	    1.640000E-03	    1.640000E-03	    7.900000E+02	
   -2.799463E-02	    1.841462E-03	    0.000000E+00	   -1.000000E+00	    1.640000E-03	    1.640000E-03	    7.900000E+02	
   -2.798071E-02	    2.332143E-03	    0.000000E+00	   -1.000000E+00	    1.640000E-03	    1.640000E-03	    7.900000E+02	
   -2.795238E-02	    2.925283E-03	    0.000000E+00	   -1.000000E+00	    1.640000E-03	    1.640000E-03	    7.900000E+02	
   -2.790209E-02	    3.632465E-03	    0.000000E+00	   -1.000000E+00	    1.640000E-03	    1.640000E-03	    7.900000E+02	
   -2.781990E-02	    4.463573E-03	    0.000000E+00	   -1.000000E+00	    1.640000E-03	    1.640000E-03	    7.900000E+02	
   -2.769332E-02	    5.425766E-03	    0.000000E+00	   -1.000000E+00	    1.640000E-03	    1.640000E-03	    7.900000E+02	
   -2.750733E-02	    6.522355E-03	    0.000000E+00	   -1.000000E+00	    1.640000E-03	    1.640000E-03	    7.900000E+02	
   -2.724490E-02	    7.751704E-03	    0.000000E+00	   -1.000000E+00	    1.640000E-03	    1.640000E-03	    7.900000E+02	
   -2.688776E-02	    9.106279E-03	    0.000000E+00	   -1.000000E+00	    1.640000E-03	    1.640000E-03	    7.900000E+02	
   -2.641777E-02	    1.057202E-02	    0.000000E+00	   -1.000000E+00	    1.640000E-03	    1.640000E-03	    7.900000E+02	
   -2.581854E-02	    1.212821E-02	    0.000000E+00	   -1.000000E+00	    1.640000E-03	    1.640000E-03	    7.900000E+02	
   -2.507729E-02	    1.374804E-02	    0.000000E+00	   -1.000000E+00	    1.640000E-03	    1.640000E-03	    7.900000E+02	
   -2.418666E-02	    1.539987E-02	    0.000000E+00	   -1.000000E+00	    1.640000E-03	    1.640000E-03	    7.900000E+02	
   -2.314606E-02	    1.704920E-02	    0.000000E+00	   -1.000000E+00	    1.640000E-03	    1.640000E-03	    7.900000E+02	
   -2.196242E-02	    1.866107E-02	    0.000000E+00	   -1.000000E+00	    1.640000E-03	    1.640000E-03	    7.900000E+02	
   -2.064999E-02	    2.020267E-02	    0.000000E+00	   -1.000000E+00	    1.640000E-03	    1.640000E-03	    7.900000E+02	
   -1.922938E-02	    2.164561E-02	    0.000000E+00	   -1.000000E+00	    1.640000E-03	    1.640000E-03	    7.900000E+02	
   -1.772581E-02	    2.296771E-02	    0.000000E+00	   -1.000000E+00	    1.640000E-03	    1.640000E-03	    7.900000E+02	
   -1.616706E-02	    2.415396E-02	    0.000000E+00	   -1.000000E+00	    1.640000E-03	    1.640000E-03	    7.900000E+02	
   -1.458130E-02	    2.519662E-02	    0.000000E+00	   -1.000000E+00	    1.640000E-03	    1.640000E-03	    7.900000E+02	
   -1.299518E-02	    2.609466E-02	    0.000000E+00	   -1.000000E+00	    1.640000E-03	    1.640000E-03	    7.900000E+02	
   -1.143244E-02	    2.685266E-02	    0.000000E+00	   -1.000000E+00	    1.640000E-03	    1.640000E-03	    7.900000E+02	
   -9.912968E-03	    2.747944E-02	    0.000000E+00	   -1.000000E+00	    1.640000E-03	    1.640000E-03	    7.900000E+02	
   -8.452457E-03	    2.798668E-02	    0.000000E+00	   -1.000000E+00	    1.640000E-03	    1.640000E-03	    7.900000E+02	
   -7.062415E-03	    2.838763E-02	    0.000000E+00	   -1.000000E+00	    1.640000E-03	    1.640000E-03	    7.900000E+02	
   -5.750519E-03	    2.869607E-02	    0.000000E+00	   -1.000000E+00	    1.640000E-03	    1.640000E-03	    7.900000E+02	
   -4.521123E-03	    2.892552E-02	    0.000000E+00	   -1.000000E+00	    1.640000E-03	    1.640000E-03	    7.900000E+02	
   -3.375848E-03	    2.908869E-02	    0.000000E+00	   -1.000000E+00	    1.640000E-03	    1.640000E-03	    7.900000E+02	
   -2.314168E-03	    2.919714E-02	    0.000000E+00	   -1.000000E+00	    1.640000E-03	    1.640000E-03	    7.900000E+02	
   -1.333952E-03	    2.926115E-02	    0.000000E+00	   -1.000000E+00	    1.640000E-03	    1.640000E-03	    7.900000E+02	
   -4.319252E-04	    2.928961E-02	    0.000000E+00	   -1.000000E+00	    1.640000E-03	    1.640000E-03	    7.900000E+02	
    4.319252E-04	    2.928961E-02	    0.000000E+00	   -1.000000E+00	    1.640000E-03	    1.640000E-03	    7.900000E+02	
    1.333952E-03	    2.926115E-02	    0.000000E+00	   -1.000000E+00	    1.640000E-03	    1.640000E-03	    7.900000E+02	
    2.314168E-03	    2.919714E-02	    0.000000E+00	   -1.000000E+00	    1.640000E-03	    1.640000E-03	    7.900000E+02	
    3.375848E-03	    2.908869E-02	    0.000000E+00	   -1.000000E+00	    1.640000E-03	    1.640000E-03	    7.900000E+02	
    4.521123E-03	    2.892552E-02	    0.000000E+00	   -1.000000E+00	    1.640000E-03	    1.640000E-03	    7.900000E+02	
    5.750519E-03	    2.869607E-02	    0.000000E+00	   -1.000000E+00	    1.640000E-03	    1.640000E-03	    7.900000E+02	
    7.062415E-03	    2.838763E-02	    0.000000E+00	   -1.000000E+00	    1.640000E-03	    1.640000E-03	    7.900000E+02	
    8.452457E-03	    2.798668E-02	    0.000000E+00	   -1.000000E+00	    1.640000E-03	    1.640000E-03	    7.900000E+02	
    9.912968E-03	    2.747944E-02	    0.000000E+00	   -1.000000E+00	    1.640000E-03	    1.640000E-03	    7.900000E+02	
    1.143244E-02	    2.685266E-02	    0.000000E+00	   -1.000000E+00	    1.640000E-03	    1.640000E-03	    7.900000E+02	
    1.299518E-02	    2.609466E-02	    0.000000E+00	   -1.000000E+00	    1.640000E-03	    1.640000E-03	    7.900000E+02	
    1.458130E-02	    2.519662E-02	    0.000000E+00	   -1.000000E+00	    1.640000E-03	    1.640000E-03	    7.900000E+02	
    1.616706E-02	    2.415396E-02	    0.000000E+00	   -1.000000E+00	    1.640000E-03	    1.640000E-03	    7.900000E+02	
    1.772581E-02	    2.296771E-02	    0.000000E+00	   -1.000000E+00	    1.640000E-03	    1.640000E-03	    7.900000E+02	
    1.922938E-02	    2.164561E-02	    0.000000E+00	   -1.000000E+00	    1.640000E-03	    1.640000E-03	    7.900000E+02	
    2.064999E-02	    2.020267E-02	    0.000000E+00	   -1.000000E+00	    1.640000E-03	    1.640000E-03	    7.900000E+02	
    2.196242E-02	    1.866107E-02	    0.000000E+00	   -1.000000E+00	    1.640000E-03	    1.640000E-03	    7.900000E+02	
    2.314606E-02	    1.704920E-02	    0.000000E+00	   -1.000000E+00	    1.640000E-03	    1.640000E-03	    7.900000E+02	
    2.418666E-02	    1.539987E-02	    0.000000E+00	   -1.000000E+00	    1.640000E-03	    1.640000E-03	    7.900000E+02	
    2.507729E-02	    1.374804E-02	    0.000000E+00	   -1.000000E+00	    1.640000E-03	    1.640000E-03	    7.900000E+02	
    2.581854E-02	    1.212821E-02	    0.000000E+00	   -1.000000E+00	    1.640000E-03	    1.640000E-03	    7.900000E+02	
    2.641777E-02	    1.057202E-02	    0.000000E+00	   -1.000000E+00	    1.640000E-03	    1.640000E-03	    7.900000E+02	
    2.688776E-02	    9.106279E-03	    0.000000E+00	   -1.000000E+00	    1.640000E-03	    1.640000E-03	    7.900000E+02	
    2.724490E-02	    7.751704E-03	    0.000000E+00	   -1.000000E+00	    1.640000E-03	    1.640000E-03	    7.900000E+02	
    2.750733E-02	    6.522355E-03	    0.000000E+00	   -1.000000E+00	    1.640000E-03	    1.640000E-03	    7.900000E+02	
    2.769332E-02	    5.425766E-03	    0.000000E+00	   -1.000000E+00	    1.640000E-03	    1.640000E-03	    7.900000E+02	
    2.781990E-02	    4.463573E-03	    0.000000E+00	   -1.000000E+00	    1.640000E-03	    1.640000E-03	    7.900000E+02	
    2.790209E-02	    3.632465E-03	    0.000000E+00	   -1.000000E+00	    1.640000E-03	    1.640000E-03	    7.900000E+02	
    2.795238E-02	    2.925283E-03	    0.000000E+00	   -1.000000E+00	    1.640000E-03	    1.640000E-03	    7.900000E+02	
    2.798071E-02	    2.332143E-03	    0.000000E+00	   -1.000000E+00	    1.640000E-03	    1.640000E-03	    7.900000E+02	
    2.799463E-02	    1.841462E-03	    0.000000E+00	   -1.000000E+00	    1.640000E-03	    1.640000E-03	    7.900000E+02	
    2.799961E-02	    1.440862E-03	    0.000000E+00	   -1.000000E+00	    1.640000E-03	    1.640000E-03	    7.900000E+02	
    2.799945E-02	    1.117896E-03	    0.000000E+00	   -1.000000E+00	    1.640000E-03	    1.640000E-03	    7.900000E+02	
    2.799666E-02	    8.606092E-04	    0.000000E+00	   -1.000000E+00	    1.640000E-03	    1.640000E-03	    7.900000E+02	
    2.799280E-02	    6.579342E-04	    0.000000E+00	   -1.000000E+00	    1.640000E-03	    1.640000E-03	    7.900000E+02	
    2.798877E-02	    4.999388E-04	    0.000000E+00	   -1.000000E+00	    1.640000E-03	    1.640000E-03	    7.900000E+02	
    2.798505E-02	    3.779485E-04	    0.000000E+00	   -1.000000E+00	    1.640000E-03	    1.640000E-03	    7.900000E+02	
    2.798184E-02	    2.845682E-04	    0.000000E+00	   -1.000000E+00	    1.640000E-03	    1.640000E-03	    7.900000E+02	
    2.797919E-02	    2.136302E-04	    0.000000E+00	   -1.000000E+00	    1.640000E-03	    1.640000E-03	    7.900000E+02	
    2.797707E-02	    1.600909E-04	    0.000000E+00	   -1.000000E+00	    1.640000E-03	    1.640000E-03	    7.900000E+02	
    2.797619E-02	    1.385450E-04	    0.000000E+00	   -1.000000E+00	    1.640000E-03	    1.640000E-03	    7.900000E+02	
   -2.797562E-02	    1.385675E-04	    0.000000E+00	   -1.000000E+00	    1.640000E-03	    1.640000E-03	    7.900000E+02	
   -2.797641E-02	    1.601165E-04	    1.189807E-05	   -1.000000E+00	    1.640000E-03	    1.640000E-03	    7.900000E+02	
   -2.797830E-02	    2.136626E-04	    3.649313E-05	   -1.000000E+00	    1.640000E-03	    1.640000E-03	    7.900000E+02	
   -2.798066E-02	    2.846083E-04	    6.381341E-05	   -1.000000E+00	    1.640000E-03	    1.640000E-03	    7.900000E+02	
   -2.798348E-02	    3.779965E-04	    9.581220E-05	   -1.000000E+00	    1.640000E-03	    1.640000E-03	    7.900000E+02	
   -2.798669E-02	    4.999933E-04	    1.345870E-04	   -1.000000E+00	    1.640000E-03	    1.640000E-03	    7.900000E+02	
   -2.799007E-02	    6.579905E-04	    1.824276E-04	   -1.000000E+00	    1.640000E-03	    1.640000E-03	    7.900000E+02	
   -2.799309E-02	    8.606569E-04	    2.418372E-04	   -1.000000E+00	    1.640000E-03	    1.640000E-03	    7.900000E+02	
   -2.799481E-02	    1.117915E-03	    3.155261E-04	   -1.000000E+00	    1.640000E-03	    1.640000E-03	    7.900000E+02	
   -2.799363E-02	    1.440818E-03	    4.063736E-04	   -1.000000E+00	    1.640000E-03	    1.640000E-03	    7.900000E+02	
   -2.798698E-02	    1.841296E-03	    5.173579E-04	   -1.000000E+00	    1.640000E-03	    1.640000E-03	    7.900000E+02	
   -2.797103E-02	    2.331763E-03	    6.514508E-04	   -1.000000E+00	    1.640000E-03	    1.640000E-03	    7.900000E+02	
   -2.794025E-02	    2.924550E-03	    8.114795E-04	   -1.000000E+00	    1.640000E-03	    1.640000E-03	    7.900000E+02	
   -2.788706E-02	    3.631173E-03	    9.999572E-04	   -1.000000E+00	    1.640000E-03	    1.640000E-03	    7.900000E+02	
   -2.780149E-02	    4.461437E-03	    1.218886E-03	   -1.000000E+00	    1.640000E-03	    1.640000E-03	    7.900000E+02	
   -2.767104E-02	    5.422395E-03	    1.469538E-03	   -1.000000E+00	    1.640000E-03	    1.640000E-03	    7.900000E+02	
   -2.748074E-02	    6.517243E-03	    1.752224E-03	   -1.000000E+00	    1.640000E-03	    1.640000E-03	    7.900000E+02	
   -2.721360E-02	    7.744218E-03	    2.066075E-03	   -1.000000E+00	    1.640000E-03	    1.640000E-03	    7.900000E+02	
   -2.685148E-02	    9.095659E-03	    2.408849E-03	   -1.000000E+00	    1.640000E-03	    1.640000E-03	    7.900000E+02	
   -2.637640E-02	    1.055739E-02	    2.776815E-03	   -1.000000E+00	    1.640000E-03	    1.640000E-03	    7.900000E+02	
   -2.577217E-02	    1.210864E-02	    3.164748E-03	   -1.000000E+00	    1.640000E-03	    1.640000E-03	    7.900000E+02	
   -2.502624E-02	    1.372257E-02	    3.566066E-03	   -1.000000E+00	    1.640000E-03	    1.640000E-03	    7.900000E+02	
   -2.413152E-02	    1.536758E-02	    3.973141E-03	   -1.000000E+00	    1.640000E-03	    1.640000E-03	    7.900000E+02	
   -2.308766E-02	    1.700930E-02	    4.377750E-03	   -1.000000E+00	    1.640000E-03	    1.640000E-03	    7.900000E+02	
   -2.190178E-02	    1.861296E-02	    4.771641E-03	   -1.000000E+00	    1.640000E-03	    1.640000E-03	    7.900000E+02	
   -2.058828E-02	    2.014599E-02	    5.147125E-03	   -1.000000E+00	    1.640000E-03	    1.640000E-03	    7.900000E+02	
   -1.916782E-02	    2.158027E-02	    5.497610E-03	   -1.000000E+00	    1.640000E-03	    1.640000E-03	    7.900000E+02	
   -1.766561E-02	    2.289391E-02	    5.818000E-03	   -1.000000E+00	    1.640000E-03	    1.640000E-03	    7.900000E+02	
   -1.610933E-02	    2.407212E-02	    6.104910E-03	   -1.000000E+00	    1.640000E-03	    1.640000E-03	    7.900000E+02	
   -1.452699E-02	    2.510738E-02	    6.356680E-03	   -1.000000E+00	    1.640000E-03	    1.640000E-03	    7.900000E+02	
   -1.294506E-02	    2.599879E-02	    6.573234E-03	   -1.000000E+00	    1.640000E-03	    1.640000E-03	    7.900000E+02	
   -1.138707E-02	    2.675101E-02	    6.755806E-03	   -1.000000E+00	    1.640000E-03	    1.640000E-03	    7.900000E+02	
   -9.872717E-03	    2.737288E-02	    6.906624E-03	   -1.000000E+00	    1.640000E-03	    1.640000E-03	    7.900000E+02	
   -8.417506E-03	    2.787606E-02	    7.028571E-03	   -1.000000E+00	    1.640000E-03	    1.640000E-03	    7.900000E+02	
   -7.032796E-03	    2.827375E-02	    7.124889E-03	   -1.000000E+00	    1.640000E-03	    1.640000E-03	    7.900000E+02	
   -5.726140E-03	    2.857965E-02	    7.198927E-03	   -1.000000E+00	    1.640000E-03	    1.640000E-03	    7.900000E+02	
   -4.501803E-03	    2.880719E-02	    7.253958E-03	   -1.000000E+00	    1.640000E-03	    1.640000E-03	    7.900000E+02	
   -3.361341E-03	    2.896900E-02	    7.293052E-03	   -1.000000E+00	    1.640000E-03	    1.640000E-03	    7.900000E+02	
   -2.304187E-03	    2.907654E-02	    7.318995E-03	   -1.000000E+00	    1.640000E-03	    1.640000E-03	    7.900000E+02	
   -1.328186E-03	    2.914000E-02	    7.334256E-03	   -1.000000E+00	    1.640000E-03	    1.640000E-03	    7.900000E+02	
   -4.300564E-04	    2.916822E-02	    7.340976E-03	   -1.000000E+00	    1.640000E-03	    1.640000E-03	    7.900000E+02	
    4.300564E-04	    2.916822E-02	    7.340976E-03	   -1.000000E+00	    1.640000E-03	    1.640000E-03	    7.900000E+02	
    1.328186E-03	    2.914000E-02	    7.334256E-03	   -1.000000E+00	    1.640000E-03	    1.640000E-03	    7.900000E+02	
    2.304187E-03	    2.907654E-02	    7.318995E-03	   -1.000000E+00	    1.640000E-03	    1.640000E-03	    7.900000E+02	
    3.361341E-03	    2.896900E-02	    7.293052E-03	   -1.000000E+00	    1.640000E-03	    1.640000E-03	    7.900000E+02	
    4.501803E-03	    2.880719E-02	    7.253958E-03	   -1.000000E+00	    1.640000E-03	    1.640000E-03	    7.900000E+02	
    5.726140E-03	    2.857965E-02	    7.198927E-03	   -1.000000E+00	    1.640000E-03	    1.640000E-03	    7.900000E+02	
    7.032796E-03	    2.827375E-02	    7.124889E-03	   -1.000000E+00	    1.640000E-03	    1.640000E-03	    7.900000E+02	
    8.417506E-03	    2.787606E-02	    7.028571E-03	   -1.000000E+00	    1.640000E-03	    1.640000E-03	    7.900000E+02	
    9.872717E-03	    2.737288E-02	    6.906624E-03	   -1.000000E+00	    1.640000E-03	    1.640000E-03	    7.900000E+02	
    1.138707E-02	    2.675101E-02	    6.755806E-03	   -1.000000E+00	    1.640000E-03	    1.640000E-03	    7.900000E+02	
    1.294506E-02	    2.599879E-02	    6.573234E-03	   -1.000000E+00	    1.640000E-03	    1.640000E-03	    7.900000E+02	
    1.452699E-02	    2.510738E-02	    6.356681E-03	   -1.000000E+00	    1.640000E-03	    1.640000E-03	    7.900000E+02	
    1.610933E-02	    2.407212E-02	    6.104910E-03	   -1.000000E+00	    1.640000E-03	    1.640000E-03	    7.900000E+02	
    1.766561E-02	    2.289391E-02	    5.818001E-03	   -1.000000E+00	    1.640000E-03	    1.640000E-03	    7.900000E+02	
    1.916782E-02	    2.158027E-02	    5.497610E-03	   -1.000000E+00	    1.640000E-03	    1.640000E-03	    7.900000E+02	
    2.058828E-02	    2.014599E-02	    5.147125E-03	   -1.000000E+00	    1.640000E-03	    1.640000E-03	    7.900000E+02	
    2.190178E-02	    1.861296E-02	    4.771641E-03	   -1.000000E+00	    1.640000E-03	    1.640000E-03	    7.900000E+02	
    2.308766E-02	    1.700930E-02	    4.377750E-03	   -1.000000E+00	    1.640000E-03	    1.640000E-03	    7.900000E+02	
    2.413152E-02	    1.536758E-02	    3.973141E-03	   -1.000000E+00	    1.640000E-03	    1.640000E-03	    7.900000E+02	
    2.502624E-02	    1.372257E-02	    3.566067E-03	   -1.000000E+00	    1.640000E-03	    1.640000E-03	    7.900000E+02	
    2.577217E-02	    1.210864E-02	    3.164748E-03	   -1.000000E+00	    1.640000E-03	    1.640000E-03	    7.900000E+02	
    2.637640E-02	    1.055739E-02	    2.776816E-03	   -1.000000E+00	    1.640000E-03	    1.640000E-03	    7.900000E+02	
    2.685148E-02	    9.095659E-03	    2.408850E-03	   -1.000000E+00	    1.640000E-03	    1.640000E-03	    7.900000E+02	
    2.721360E-02	    7.744218E-03	    2.066076E-03	   -1.000000E+00	    1.640000E-03	    1.640000E-03	    7.900000E+02	
    2.748074E-02	    6.517243E-03	    1.752225E-03	   -1.000000E+00	    1.640000E-03	    1.640000E-03	    7.900000E+02	
    2.767104E-02	    5.422395E-03	    1.469538E-03	   -1.000000E+00	    1.640000E-03	    1.640000E-03	    7.900000E+02	
    2.780149E-02	    4.461437E-03	    1.218887E-03	   -1.000000E+00	    1.640000E-03	    1.640000E-03	    7.900000E+02	
    2.788706E-02	    3.631173E-03	    9.999584E-04	   -1.000000E+00	    1.640000E-03	    1.640000E-03	    7.900000E+02	
    2.794025E-02	    2.924550E-03	    8.114810E-04	   -1.000000E+00	    1.640000E-03	    1.640000E-03	    7.900000E+02	
    2.797103E-02	    2.331763E-03	    6.514526E-04	   -1.000000E+00	    1.640000E-03	    1.640000E-03	    7.900000E+02	
    2.798698E-02	    1.841296E-03	    5.173602E-04	   -1.000000E+00	    1.640000E-03	    1.640000E-03	    7.900000E+02	
    2.799363E-02	    1.440818E-03	    4.063764E-04	   -1.000000E+00	    1.640000E-03	    1.640000E-03	    7.900000E+02	
    2.799481E-02	    1.117915E-03	    3.155296E-04	   -1.000000E+00	    1.640000E-03	    1.640000E-03	    7.900000E+02	
    2.799309E-02	    8.606569E-04	    2.418417E-04	   -1.000000E+00	    1.640000E-03	    1.640000E-03	    7.900000E+02	
    2.799007E-02	    6.579905E-04	    1.824331E-04	   -1.000000E+00	    1.640000E-03	    1.640000E-03	    7.900000E+02	
    2.798669E-02	    4.999933E-04	    1.345935E-04	   -1.000000E+00	    1.640000E-03	    1.640000E-03	    7.900000E+02	
    2.798348E-02	    3.779965E-04	    9.581941E-05	   -1.000000E+00	    1.640000E-03	    1.640000E-03	    7.900000E+02	
    2.798066E-02	    2.846083E-04	    6.382055E-05	   -1.000000E+00	    1.640000E-03	    1.640000E-03	    7.900000E+02	
    2.797830E-02	    2.136626E-04	    3.649871E-05	   -1.000000E+00	    1.640000E-03	    1.640000E-03	    7.900000E+02	
    2.797641E-02	    1.601165E-04	    1.190026E-05	   -1.000000E+00	    1.640000E-03	    1.640000E-03	    7.900000E+02	
    2.797562E-02	    1.385675E-04	    0.000000E+00	   -1.000000E+00	    1.640000E-03	    1.640000E-03	    7.900000E+02	
   -2.797436E-02	    1.386085E-04	    0.000000E+00	   -1.000000E+00	    1.640000E-03	    1.640000E-03	    7.900000E+02	
   -2.797496E-02	    1.601627E-04	    3.792111E-05	   -1.000000E+00	    1.640000E-03	    1.640000E-03	    7.900000E+02	
   -2.797636E-02	    2.137206E-04	    1.163194E-04	   -1.000000E+00	    1.640000E-03	    1.640000E-03	    7.900000E+02	
   -2.797807E-02	    2.846790E-04	    2.034006E-04	   -1.000000E+00	    1.640000E-03	    1.640000E-03	    7.900000E+02	
   -2.798004E-02	    3.780789E-04	    3.053879E-04	   -1.000000E+00	    1.640000E-03	    1.640000E-03	    7.900000E+02	
   -2.798215E-02	    5.000825E-04	    4.289621E-04	   -1.000000E+00	    1.640000E-03	    1.640000E-03	    7.900000E+02	
   -2.798409E-02	    6.580741E-04	    5.814131E-04	   -1.000000E+00	    1.640000E-03	    1.640000E-03	    7.900000E+02	
   -2.798527E-02	    8.607097E-04	    7.707059E-04	   -1.000000E+00	    1.640000E-03	    1.640000E-03	    7.900000E+02	
   -2.798465E-02	    1.117891E-03	    1.005457E-03	   -1.000000E+00	    1.640000E-03	    1.640000E-03	    7.900000E+02	
   -2.798054E-02	    1.440635E-03	    1.294809E-03	   -1.000000E+00	    1.640000E-03	    1.640000E-03	    7.900000E+02	
   -2.797026E-02	    1.840823E-03	    1.648204E-03	   -1.000000E+00	    1.640000E-03	    1.640000E-03	    7.900000E+02	
   -2.794987E-02	    2.330793E-03	    2.075042E-03	   -1.000000E+00	    1.640000E-03	    1.640000E-03	    7.900000E+02	
   -2.791375E-02	    2.922772E-03	    2.584230E-03	   -1.000000E+00	    1.640000E-03	    1.640000E-03	    7.900000E+02	
   -2.785423E-02	    3.628134E-03	    3.183645E-03	   -1.000000E+00	    1.640000E-03	    1.640000E-03	    7.900000E+02	
   -2.776129E-02	    4.456502E-03	    3.879493E-03	   -1.000000E+00	    1.640000E-03	    1.640000E-03	    7.900000E+02	
   -2.762242E-02	    5.414711E-03	    4.675619E-03	   -1.000000E+00	    1.640000E-03	    1.640000E-03	    7.900000E+02	
   -2.742272E-02	    6.505700E-03	    5.572772E-03	   -1.000000E+00	    1.640000E-03	    1.640000E-03	    7.900000E+02	
   -2.714536E-02	    7.727430E-03	    6.567919E-03	   -1.000000E+00	    1.640000E-03	    1.640000E-03	    7.900000E+02	
   -2.677243E-02	    9.071971E-03	    7.653659E-03	   -1.000000E+00	    1.640000E-03	    1.640000E-03	    7.900000E+02	
   -2.628631E-02	    1.052492E-02	    8.817884E-03	   -1.000000E+00	    1.640000E-03	    1.640000E-03	    7.900000E+02	
   -2.567126E-02	    1.206534E-02	    1.004379E-02	   -1.000000E+00	    1.640000E-03	    1.640000E-03	    7.900000E+02	
   -2.491525E-02	    1.366636E-02	    1.131039E-02	   -1.000000E+00	    1.640000E-03	    1.640000E-03	    7.900000E+02	
   -2.401174E-02	    1.529651E-02	    1.259345E-02	   -1.000000E+00	    1.640000E-03	    1.640000E-03	    7.900000E+02	
   -2.296088E-02	    1.692166E-02	    1.386704E-02	   -1.000000E+00	    1.640000E-03	    1.640000E-03	    7.900000E+02	
   -2.177024E-02	    1.850747E-02	    1.510525E-02	   -1.000000E+00	    1.640000E-03	    1.640000E-03	    7.900000E+02	
   -2.045451E-02	    2.002191E-02	    1.628409E-02	   -1.000000E+00	    1.640000E-03	    1.640000E-03	    7.900000E+02	
   -1.903447E-02	    2.143744E-02	    1.738312E-02	   -1.000000E+00	    1.640000E-03	    1.640000E-03	    7.900000E+02	
   -1.753529E-02	    2.273276E-02	    1.838665E-02	   -1.000000E+00	    1.640000E-03	    1.640000E-03	    7.900000E+02	
   -1.598442E-02	    2.389360E-02	    1.928440E-02	   -1.000000E+00	    1.640000E-03	    1.640000E-03	    7.900000E+02	
   -1.440954E-02	    2.491288E-02	    2.007148E-02	   -1.000000E+00	    1.640000E-03	    1.640000E-03	    7.900000E+02	
   -1.283672E-02	    2.578998E-02	    2.074793E-02	   -1.000000E+00	    1.640000E-03	    1.640000E-03	    7.900000E+02	
   -1.128904E-02	    2.652973E-02	    2.131785E-02	   -1.000000E+00	    1.640000E-03	    1.640000E-03	    7.900000E+02	
   -9.785761E-03	    2.714103E-02	    2.178838E-02	   -1.000000E+00	    1.640000E-03	    1.640000E-03	    7.900000E+02	
   -8.342016E-03	    2.763548E-02	    2.216866E-02	   -1.000000E+00	    1.640000E-03	    1.640000E-03	    7.900000E+02	
   -6.968832E-03	    2.802615E-02	    2.246890E-02	   -1.000000E+00	    1.640000E-03	    1.640000E-03	    7.900000E+02	
   -5.673503E-03	    2.832658E-02	    2.269962E-02	   -1.000000E+00	    1.640000E-03	    1.640000E-03	    7.900000E+02	
   -4.460094E-03	    2.855002E-02	    2.287108E-02	   -1.000000E+00	    1.640000E-03	    1.640000E-03	    7.900000E+02	
   -3.330025E-03	    2.870888E-02	    2.299285E-02	   -1.000000E+00	    1.640000E-03	    1.640000E-03	    7.900000E+02	
   -2.282641E-03	    2.881446E-02	    2.307365E-02	   -1.000000E+00	    1.640000E-03	    1.640000E-03	    7.900000E+02	
   -1.315739E-03	    2.887677E-02	    2.312118E-02	   -1.000000E+00	    1.640000E-03	    1.640000E-03	    7.900000E+02	
   -4.260224E-04	    2.890447E-02	    2.314210E-02	   -1.000000E+00	    1.640000E-03	    1.640000E-03	    7.900000E+02	
    4.260224E-04	    2.890447E-02	    2.314210E-02	   -1.000000E+00	    1.640000E-03	    1.640000E-03	    7.900000E+02	
    1.315739E-03	    2.887677E-02	    2.312118E-02	   -1.000000E+00	    1.640000E-03	    1.640000E-03	    7.900000E+02	
    2.282641E-03	    2.881446E-02	    2.307365E-02	   -1.000000E+00	    1.640000E-03	    1.640000E-03	    7.900000E+02	
    3.330025E-03	    2.870888E-02	    2.299285E-02	   -1.000000E+00	    1.640000E-03	    1.640000E-03	    7.900000E+02	
    4.460094E-03	    2.855002E-02	    2.287108E-02	   -1.000000E+00	    1.640000E-03	    1.640000E-03	    7.900000E+02	
    5.673503E-03	    2.832658E-02	    2.269962E-02	   -1.000000E+00	    1.640000E-03	    1.640000E-03	    7.900000E+02	
    6.968832E-03	    2.802615E-02	    2.246890E-02	   -1.000000E+00	    1.640000E-03	    1.640000E-03	    7.900000E+02	
    8.342016E-03	    2.763548E-02	    2.216866E-02	   -1.000000E+00	    1.640000E-03	    1.640000E-03	    7.900000E+02	
    9.785761E-03	    2.714103E-02	    2.178838E-02	   -1.000000E+00	    1.640000E-03	    1.640000E-03	    7.900000E+02	
    1.128904E-02	    2.652973E-02	    2.131785E-02	   -1.000000E+00	    1.640000E-03	    1.640000E-03	    7.900000E+02	
    1.283672E-02	    2.578998E-02	    2.074793E-02	   -1.000000E+00	    1.640000E-03	    1.640000E-03	    7.900000E+02	
    1.440954E-02	    2.491288E-02	    2.007148E-02	   -1.000000E+00	    1.640000E-03	    1.640000E-03	    7.900000E+02	
    1.598442E-02	    2.389360E-02	    1.928440E-02	   -1.000000E+00	    1.640000E-03	    1.640000E-03	    7.900000E+02	
    1.753529E-02	    2.273276E-02	    1.838665E-02	   -1.000000E+00	    1.640000E-03	    1.640000E-03	    7.900000E+02	
    1.903447E-02	    2.143744E-02	    1.738312E-02	   -1.000000E+00	    1.640000E-03	    1.640000E-03	    7.900000E+02	
    2.045451E-02	    2.002191E-02	    1.628410E-02	   -1.000000E+00	    1.640000E-03	    1.640000E-03	    7.900000E+02	
    2.177024E-02	    1.850747E-02	    1.510525E-02	   -1.000000E+00	    1.640000E-03	    1.640000E-03	    7.900000E+02	
    2.296088E-02	    1.692166E-02	    1.386704E-02	   -1.000000E+00	    1.640000E-03	    1.640000E-03	    7.900000E+02	
    2.401174E-02	    1.529651E-02	    1.259345E-02	   -1.000000E+00	    1.640000E-03	    1.640000E-03	    7.900000E+02	
    2.491525E-02	    1.366636E-02	    1.131039E-02	   -1.000000E+00	    1.640000E-03	    1.640000E-03	    7.900000E+02	
    2.567126E-02	    1.206534E-02	    1.004380E-02	   -1.000000E+00	    1.640000E-03	    1.640000E-03	    7.900000E+02	
    2.628631E-02	    1.052492E-02	    8.817885E-03	   -1.000000E+00	    1.640000E-03	    1.640000E-03	    7.900000E+02	
    2.677243E-02	    9.071971E-03	    7.653661E-03	   -1.000000E+00	    1.640000E-03	    1.640000E-03	    7.900000E+02	
    2.714536E-02	    7.727430E-03	    6.567921E-03	   -1.000000E+00	    1.640000E-03	    1.640000E-03	    7.900000E+02	
    2.742272E-02	    6.505700E-03	    5.572774E-03	   -1.000000E+00	    1.640000E-03	    1.640000E-03	    7.900000E+02	
    2.762242E-02	    5.414711E-03	    4.675621E-03	   -1.000000E+00	    1.640000E-03	    1.640000E-03	    7.900000E+02	
    2.776129E-02	    4.456502E-03	    3.879496E-03	   -1.000000E+00	    1.640000E-03	    1.640000E-03	    7.900000E+02	
    2.785423E-02	    3.628134E-03	    3.183648E-03	   -1.000000E+00	    1.640000E-03	    1.640000E-03	    7.900000E+02	
    2.791375E-02	    2.922772E-03	    2.584235E-03	   -1.000000E+00	    1.640000E-03	    1.640000E-03	    7.900000E+02	
    2.794987E-02	    2.330793E-03	    2.075047E-03	   -1.000000E+00	    1.640000E-03	    1.640000E-03	    7.900000E+02	
    2.797026E-02	    1.840823E-03	    1.648212E-03	   -1.000000E+00	    1.640000E-03	    1.640000E-03	    7.900000E+02	
    2.798054E-02	    1.440635E-03	    1.294818E-03	   -1.000000E+00	    1.640000E-03	    1.640000E-03	    7.900000E+02	
    2.798465E-02	    1.117891E-03	    1.005468E-03	   -1.000000E+00	    1.640000E-03	    1.640000E-03	    7.900000E+02	
    2.798527E-02	    8.607097E-04	    7.707201E-04	   -1.000000E+00	    1.640000E-03	    1.640000E-03	    7.900000E+02	
    2.798409E-02	    6.580741E-04	    5.814305E-04	   -1.000000E+00	    1.640000E-03	    1.640000E-03	    7.900000E+02	
    2.798215E-02	    5.000825E-04	    4.289827E-04	   -1.000000E+00	    1.640000E-03	    1.640000E-03	    7.900000E+02	
    2.798004E-02	    3.780789E-04	    3.054109E-04	   -1.000000E+00	    1.640000E-03	    1.640000E-03	    7.900000E+02	
    2.797807E-02	    2.846790E-04	    2.034233E-04	   -1.000000E+00	    1.640000E-03	    1.640000E-03	    7.900000E+02	
    2.797636E-02	    2.137206E-04	    1.163372E-04	   -1.000000E+00	    1.640000E-03	    1.640000E-03	    7.900000E+02	
    2.797496E-02	    1.601627E-04	    3.792808E-05	   -1.000000E+00	    1.640000E-03	    1.640000E-03	    7.900000E+02	
    2.797436E-02	    1.386085E-04	    0.000000E+00	   -1.000000E+00	    1.640000E-03	    1.640000E-03	    7.900000E+02	
   -2.797287E-02	    1.386423E-04	    0.000000E+00	   -1.000000E+00	    1.640000E-03	    1.640000E-03	    7.900000E+02	
   -2.797323E-02	    1.602004E-04	    6.878330E-05	   -1.000000E+00	    1.640000E-03	    1.640000E-03	    7.900000E+02	
   -2.797406E-02	    2.137665E-04	    2.110029E-04	   -1.000000E+00	    1.640000E-03	    1.640000E-03	    7.900000E+02	