Title="Fields"
Variables="X""Y""Velocity""Phi""Effective Viscosity""Dynamic Viscosity""Density""Eddy Viscosity""K""Omega""S""F1SST""distance""GEN"
Zone I=52 J=52 F=POINT
   -1.214938E-02	    6.023019E-05	    0.000000E+00	    0.000000E+00	    1.000000E-03	    1.000000E-03	    1.000000E+03	    0.000000E+00	    0.000000E+00	    6.033286E+08	    0.000000E+00	    1.000000E+00	    0.000000E+00	    0.000000E+00	
   -1.214921E-02	    7.587848E-05	    0.000000E+00	    0.000000E+00	    1.000000E-03	    1.000000E-03	    1.000000E+03	    0.000000E+00	    0.000000E+00	    6.033286E+08	    0.000000E+00	    1.000000E+00	    0.000000E+00	    0.000000E+00	
   -1.214863E-02	    1.201308E-04	    0.000000E+00	    0.000000E+00	    1.000000E-03	    1.000000E-03	    1.000000E+03	    0.000000E+00	    0.000000E+00	    2.407095E+08	    0.000000E+00	    1.000000E+00	    0.000000E+00	    0.000000E+00	
   -1.214740E-02	    1.888073E-04	    0.000000E+00	    0.000000E+00	    1.000000E-03	    1.000000E-03	    1.000000E+03	    0.000000E+00	    0.000000E+00	    9.744981E+07	    0.000000E+00	    1.000000E+00	    0.000000E+00	    0.000000E+00	
   -1.214480E-02	    2.932504E-04	    0.000000E+00	    0.000000E+00	    1.000000E-03	    1.000000E-03	    1.000000E+03	    0.000000E+00	    0.000000E+00	    4.039863E+07	    0.000000E+00	    1.000000E+00	    0.000000E+00	    0.000000E+00	
   -1.213927E-02	    4.482615E-04	    0.000000E+00	    0.000000E+00	    1.000000E-03	    1.000000E-03	    1.000000E+03	    0.000000E+00	    0.000000E+00	    1.729094E+07	    0.000000E+00	    1.000000E+00	    0.000000E+00	    0.000000E+00	
   -1.212779E-02	    6.719717E-04	    0.000000E+00	    0.000000E+00	    1.000000E-03	    1.000000E-03	    1.000000E+03	    0.000000E+00	    0.000000E+00	    7.695445E+06	    0.000000E+00	    1.000000E+00	    0.000000E+00	    0.000000E+00	
   -1.210478E-02	    9.849302E-04	    0.000000E+00	    0.000000E+00	    1.000000E-03	    1.000000E-03	    1.000000E+03	    0.000000E+00	    0.000000E+00	    3.582619E+06	    0.000000E+00	    1.000000E+00	    0.000000E+00	    0.000000E+00	
   -1.206069E-02	    1.408146E-03	    0.000000E+00	    0.000000E+00	    1.000000E-03	    1.000000E-03	    1.000000E+03	    0.000000E+00	    0.000000E+00	    1.753150E+06	    0.000000E+00	    1.000000E+00	    0.000000E+00	    0.000000E+00	
   -1.198052E-02	    1.959941E-03	    0.000000E+00	    0.000000E+00	    1.000000E-03	    1.000000E-03	    1.000000E+03	    0.000000E+00	    0.000000E+00	    9.052357E+05	    0.000000E+00	    1.000000E+00	    0.000000E+00	    0.000000E+00	
   -1.184298E-02	    2.651741E-03	    0.000000E+00	    0.000000E+00	    1.000000E-03	    1.000000E-03	    1.000000E+03	    0.000000E+00	    0.000000E+00	    4.947133E+05	    0.000000E+00	    1.000000E+00	    0.000000E+00	    0.000000E+00	
   -1.162114E-02	    3.483320E-03	    0.000000E+00	    0.000000E+00	    1.000000E-03	    1.000000E-03	    1.000000E+03	    0.000000E+00	    0.000000E+00	    2.868342E+05	    0.000000E+00	    1.000000E+00	    0.000000E+00	    0.000000E+00	
   -1.128553E-02	    4.438690E-03	    0.000000E+00	    0.000000E+00	    1.000000E-03	    1.000000E-03	    1.000000E+03	    0.000000E+00	    0.000000E+00	    1.767426E+05	    0.000000E+00	    1.000000E+00	    0.000000E+00	    0.000000E+00	
   -1.081005E-02	    5.484299E-03	    0.000000E+00	    0.000000E+00	    1.000000E-03	    1.000000E-03	    1.000000E+03	    0.000000E+00	    0.000000E+00	    1.158419E+05	    0.000000E+00	    1.000000E+00	    0.000000E+00	    0.000000E+00	
   -1.017927E-02	    6.571284E-03	    0.000000E+00	    0.000000E+00	    1.000000E-03	    1.000000E-03	    1.000000E+03	    0.000000E+00	    0.000000E+00	    8.073811E+04	    0.000000E+00	    1.000000E+00	    0.000000E+00	    0.000000E+00	
   -9.394706E-03	    7.642333E-03	    0.000000E+00	    0.000000E+00	    1.000000E-03	    1.000000E-03	    1.000000E+03	    0.000000E+00	    0.000000E+00	    5.973103E+04	    0.000000E+00	    1.000000E+00	    0.000000E+00	    0.000000E+00	
   -8.477160E-03	    8.641696E-03	    0.000000E+00	    0.000000E+00	    1.000000E-03	    1.000000E-03	    1.000000E+03	    0.000000E+00	    0.000000E+00	    4.674291E+04	    0.000000E+00	    1.000000E+00	    0.000000E+00	    0.000000E+00	
   -7.463564E-03	    9.525032E-03	    0.000000E+00	    0.000000E+00	    1.000000E-03	    1.000000E-03	    1.000000E+03	    0.000000E+00	    0.000000E+00	    3.849633E+04	    0.000000E+00	    1.000000E+00	    0.000000E+00	    0.000000E+00	
   -6.399587E-03	    1.026567E-02	    0.000000E+00	    0.000000E+00	    1.000000E-03	    1.000000E-03	    1.000000E+03	    0.000000E+00	    0.000000E+00	    3.315772E+04	    0.000000E+00	    1.000000E+00	    0.000000E+00	    0.000000E+00	
   -5.330989E-03	    1.085567E-02	    0.000000E+00	    0.000000E+00	    1.000000E-03	    1.000000E-03	    1.000000E+03	    0.000000E+00	    0.000000E+00	    2.966304E+04	    0.000000E+00	    1.000000E+00	    0.000000E+00	    0.000000E+00	
   -4.296721E-03	    1.130255E-02	    0.000000E+00	    0.000000E+00	    1.000000E-03	    1.000000E-03	    1.000000E+03	    0.000000E+00	    0.000000E+00	    2.737216E+04	    0.000000E+00	    1.000000E+00	    0.000000E+00	    0.000000E+00	
   -3.325302E-03	    1.162376E-02	    0.000000E+00	    0.000000E+00	    1.000000E-03	    1.000000E-03	    1.000000E+03	    0.000000E+00	    0.000000E+00	    2.588608E+04	    0.000000E+00	    1.000000E+00	    0.000000E+00	    0.000000E+00	
   -2.434311E-03	    1.184130E-02	    0.000000E+00	    0.000000E+00	    1.000000E-03	    1.000000E-03	    1.000000E+03	    0.000000E+00	    0.000000E+00	    2.494753E+04	    0.000000E+00	    1.000000E+00	    0.000000E+00	    0.000000E+00	
   -1.631902E-03	    1.197757E-02	    0.000000E+00	    0.000000E+00	    1.000000E-03	    1.000000E-03	    1.000000E+03	    0.000000E+00	    0.000000E+00	    2.438549E+04	    0.000000E+00	    1.000000E+00	    0.000000E+00	    0.000000E+00	
   -9.191623E-04	    1.205284E-02	    0.000000E+00	    0.000000E+00	    1.000000E-03	    1.000000E-03	    1.000000E+03	    0.000000E+00	    0.000000E+00	    2.408316E+04	    0.000000E+00	    1.000000E+00	    0.000000E+00	    0.000000E+00	
   -2.924820E-04	    1.208414E-02	    0.000000E+00	    0.000000E+00	    1.000000E-03	    1.000000E-03	    1.000000E+03	    0.000000E+00	    0.000000E+00	    2.395912E+04	    0.000000E+00	    1.000000E+00	    0.000000E+00	    0.000000E+00	
    2.924820E-04	    1.208414E-02	    0.000000E+00	    0.000000E+00	    1.000000E-03	    1.000000E-03	    1.000000E+03	    0.000000E+00	    0.000000E+00	    2.395912E+04	    0.000000E+00	    1.000000E+00	    0.000000E+00	    0.000000E+00	
    9.191623E-04	    1.205284E-02	    0.000000E+00	    0.000000E+00	    1.000000E-03	    1.000000E-03	    1.000000E+03	    0.000000E+00	    0.000000E+00	    2.408316E+04	    0.000000E+00	    1.000000E+00	    0.000000E+00	    0.000000E+00	
    1.631902E-03	    1.197757E-02	    0.000000E+00	    0.000000E+00	    1.000000E-03	    1.000000E-03	    1.000000E+03	    0.000000E+00	    0.000000E+00	    2.438549E+04	    0.000000E+00	    1.000000E+00	    0.000000E+00	    0.000000E+00	
    2.434311E-03	    1.184130E-02	    0.000000E+00	    0.000000E+00	    1.000000E-03	    1.000000E-03	    1.000000E+03	    0.000000E+00	    0.000000E+00	    2.494753E+04	    0.000000E+00	    1.000000E+00	    0.000000E+00	    0.000000E+00	
    3.325302E-03	    1.162376E-02	    0.000000E+00	    0.000000E+00	    1.000000E-03	    1.000000E-03	    1.000000E+03	    0.000000E+00	    0.000000E+00	    2.588608E+04	    0.000000E+00	    1.000000E+00	    0.000000E+00	    0.000000E+00	
    4.296721E-03	    1.130255E-02	    0.000000E+00	    0.000000E+00	    1.000000E-03	    1.000000E-03	    1.000000E+03	    0.000000E+00	    0.000000E+00	    2.737216E+04	    0.000000E+00	    1.000000E+00	    0.000000E+00	    0.000000E+00	
    5.330989E-03	    1.085567E-02	    0.000000E+00	    0.000000E+00	    1.000000E-03	    1.000000E-03	    1.000000E+03	    0.000000E+00	    0.000000E+00	    2.966304E+04	    0.000000E+00	    1.000000E+00	    0.000000E+00	    0.000000E+00	
    6.399587E-03	    1.026567E-02	    0.000000E+00	    0.000000E+00	    1.000000E-03	    1.000000E-03	    1.000000E+03	    0.000000E+00	    0.000000E+00	    3.315772E+04	    0.000000E+00	    1.000000E+00	    0.000000E+00	    0.000000E+00	
    7.463564E-03	    9.525032E-03	    0.000000E+00	    0.000000E+00	    1.000000E-03	    1.000000E-03	    1.000000E+03	    0.000000E+00	    0.000000E+00	    3.849633E+04	    0.000000E+00	    1.000000E+00	    0.000000E+00	    0.000000E+00	
    8.477160E-03	    8.641696E-03	    0.000000E+00	    0.000000E+00	    1.000000E-03	    1.000000E-03	    1.000000E+03	    0.000000E+00	    0.000000E+00	    4.674291E+04	    0.000000E+00	    1.000000E+00	    0.000000E+00	    0.000000E+00	
    9.394706E-03	    7.642333E-03	    0.000000E+00	    0.000000E+00	    1.000000E-03	    1.000000E-03	    1.000000E+03	    0.000000E+00	    0.000000E+00	    5.973103E+04	    0.000000E+00	    1.000000E+00	    0.000000E+00	    0.000000E+00	
    1.017927E-02	    6.571284E-03	    0.000000E+00	    0.000000E+00	    1.000000E-03	    1.000000E-03	    1.000000E+03	    0.000000E+00	    0.000000E+00	    8.073811E+04	    0.000000E+00	    1.000000E+00	    0.000000E+00	    0.000000E+00	
    1.081005E-02	    5.484299E-03	    0.000000E+00	    0.000000E+00	    1.000000E-03	    1.000000E-03	    1.000000E+03	    0.000000E+00	    0.000000E+00	    1.158419E+05	    0.000000E+00	    1.000000E+00	    0.000000E+00	    0.000000E+00	
    1.128553E-02	    4.438690E-03	    0.000000E+00	    0.000000E+00	    1.000000E-03	    1.000000E-03	    1.000000E+03	    0.000000E+00	    0.000000E+00	    1.767426E+05	    0.000000E+00	    1.000000E+00	    0.000000E+00	    0.000000E+00	
    1.162114E-02	    3.483320E-03	    0.000000E+00	    0.000000E+00	    1.000000E-03	    1.000000E-03	    1.000000E+03	    0.000000E+00	    0.000000E+00	    2.868342E+05	    0.000000E+00	    1.000000E+00	    0.000000E+00	    0.000000E+00	
    1.184298E-02	    2.651741E-03	    0.000000E+00	    0.000000E+00	    1.000000E-03	    1.000000E-03	    1.000000E+03	    0.000000E+00	    0.000000E+00	    4.947133E+05	    0.000000E+00	    1.000000E+00	    0.000000E+00	    0.000000E+00	
    1.198052E-02	    1.959941E-03	    0.000000E+00	    0.000000E+00	    1.000000E-03	    1.000000E-03	    1.000000E+03	    0.000000E+00	    0.000000E+00	    9.052357E+05	    0.000000E+00	    1.000000E+00	    0.000000E+00	    0.000000E+00	
    1.206069E-02	    1.408146E-03	    0.000000E+00	    0.000000E+00	    1.000000E-03	    1.000000E-03	    1.000000E+03	    0.000000E+00	    0.000000E+00	    1.753150E+06	    0.000000E+00	    1.000000E+00	    0.000000E+00	    0.000000E+00	
    1.210478E-02	    9.849302E-04	    0.000000E+00	    0.000000E+00	    1.000000E-03	    1.000000E-03	    1.000000E+03	    0.000000E+00	    0.000000E+00	    3.582619E+06	    0.000000E+00	    1.000000E+00	    0.000000E+00	    0.000000E+00	
    1.212779E-02	    6.719717E-04	    0.000000E+00	    0.000000E+00	    1.000000E-03	    1.000000E-03	    1.000000E+03	    0.000000E+00	    0.000000E+00	    7.695445E+06	    0.000000E+00	    1.000000E+00	    0.000000E+00	    0.000000E+00	
    1.213927E-02	    4.482615E-04	    0.000000E+00	    0.000000E+00	    1.000000E-03	    1.000000E-03	    1.000000E+03	    0.000000E+00	    0.000000E+00	    1.729094E+07	    0.000000E+00	    1.000000E+00	    0.000000E+00	    0.000000E+00	
    1.214480E-02	    2.932504E-04	    0.000000E+00	    0.000000E+00	    1.000000E-03	    1.000000E-03	    1.000000E+03	    0.000000E+00	    0.000000E+00	    4.039863E+07	    0.000000E+00	    1.000000E+00	    0.000000E+00	    0.000000E+00	
    1.214740E-02	    1.888073E-04	    0.000000E+00	    0.000000E+00	    1.000000E-03	    1.000000E-03	    1.000000E+03	    0.000000E+00	    0.000000E+00	    9.744981E+07	    0.000000E+00	    1.000000E+00	    0.000000E+00	    0.000000E+00	
    1.214863E-02	    1.201308E-04	    0.000000E+00	    0.000000E+00	    1.000000E-03	    1.000000E-03	    1.000000E+03	    0.000000E+00	    0.000000E+00	    2.407095E+08	    0.000000E+00	    1.000000E+00	    0.000000E+00	    0.000000E+00	
    1.214921E-02	    7.587848E-05	    0.000000E+00	    0.000000E+00	    1.000000E-03	    1.000000E-03	    1.000000E+03	    0.000000E+00	    0.000000E+00	    6.033286E+08	    0.000000E+00	    1.000000E+00	    0.000000E+00	    0.000000E+00	
    1.214938E-02	    6.023019E-05	    0.000000E+00	    0.000000E+00	    1.000000E-03	    1.000000E-03	    1.000000E+03	    0.000000E+00	    0.000000E+00	    0.000000E+00	    0.000000E+00	    1.000000E+00	    0.000000E+00	    0.000000E+00	
   -1.214897E-02	    6.022468E-05	    0.000000E+00	    0.000000E+00	    1.000000E-03	    1.000000E-03	    1.000000E+03	    0.000000E+00	    0.000000E+00	    0.000000E+00	    0.000000E+00	    1.000000E+00	    0.000000E+00	    0.000000E+00	
   -1.214870E-02	    7.587088E-05	    2.472061E-04	   -1.000000E+00	    1.600000E-03	    1.600000E-03	    8.010000E+02	    6.697727E-15	    5.044857E-09	    6.033286E+08	    1.524209E+05	    1.000000E+00	    5.146497E-07	    1.416958E+02	
   -1.214782E-02	    1.201158E-04	    6.041891E-04	   -1.000000E+00	    1.600000E-03	    1.600000E-03	    8.010000E+02	    3.977464E-14	    1.195273E-08	    2.407095E+08	    3.629669E+05	    1.000000E+00	    8.147832E-07	    2.126762E+02	
   -1.214612E-02	    1.887765E-04	    1.068091E-03	   -1.000000E+00	    1.600000E-03	    1.600000E-03	    8.010000E+02	    3.075088E-13	    3.741158E-08	    9.744981E+07	    4.591766E+05	    1.000000E+00	    1.280555E-06	    2.692846E+02	
   -1.214281E-02	    2.931855E-04	    1.704380E-03	   -1.000000E+00	    1.600000E-03	    1.600000E-03	    8.010000E+02	    1.893743E-12	    9.551140E-08	    4.039863E+07	    4.846561E+05	    1.000000E+00	    1.988865E-06	    2.846296E+02	
   -1.213623E-02	    4.481234E-04	    2.592611E-03	   -1.000000E+00	    1.600000E-03	    1.600000E-03	    8.010000E+02	    1.029120E-11	    2.221529E-07	    1.729094E+07	    4.799082E+05	    1.000000E+00	    3.040041E-06	    2.826190E+02	
   -1.212324E-02	    6.716809E-04	    3.825396E-03	   -1.000000E+00	    1.600000E-03	    1.600000E-03	    8.010000E+02	    5.075801E-11	    4.876472E-07	    7.695445E+06	    4.648880E+05	    1.000000E+00	    4.556925E-06	    2.749681E+02	
   -1.209813E-02	    9.843321E-04	    5.500874E-03	   -1.000000E+00	    1.600000E-03	    1.600000E-03	    8.010000E+02	    2.282430E-10	    1.020858E-06	    3.582619E+06	    4.473802E+05	    1.000000E+00	    6.678646E-06	    2.663388E+02	
   -1.205121E-02	    1.406958E-03	    7.725012E-03	   -1.000000E+00	    1.600000E-03	    1.600000E-03	    8.010000E+02	    9.363419E-10	    2.049373E-06	    1.753150E+06	    4.315430E+05	    1.000000E+00	    9.547270E-06	    2.593271E+02	
   -1.196743E-02	    1.957686E-03	    1.058150E-02	   -1.000000E+00	    1.600001E-03	    1.600000E-03	    8.010000E+02	    3.485383E-09	    3.938943E-06	    9.052357E+05	    4.178195E+05	    1.000000E+00	    1.328642E-05	    2.542835E+02	
   -1.182548E-02	    2.647668E-03	    1.411957E-02	   -1.000000E+00	    1.600002E-03	    1.600000E-03	    8.010000E+02	    1.171207E-08	    7.233606E-06	    4.947133E+05	    4.062360E+05	    1.000000E+00	    1.797265E-05	    2.512878E+02	
   -1.159858E-02	    3.476359E-03	    1.831253E-02	   -1.000000E+00	    1.600006E-03	    1.600000E-03	    8.010000E+02	    3.526280E-08	    1.262743E-05	    2.868342E+05	    3.957984E+05	    1.000000E+00	    2.360336E-05	    2.496634E+02	
   -1.125764E-02	    4.427463E-03	    2.305736E-02	   -1.000000E+00	    1.600017E-03	    1.600000E-03	    8.010000E+02	    9.456781E-08	    2.086662E-05	    1.767426E+05	    3.861702E+05	    1.000000E+00	    3.006905E-05	    2.489963E+02	
   -1.077706E-02	    5.467244E-03	    2.824518E-02	   -1.000000E+00	    1.600041E-03	    1.600000E-03	    8.010000E+02	    2.266748E-07	    3.278208E-05	    1.158419E+05	    3.792815E+05	    1.000000E+00	    3.714152E-05	    2.505763E+02	
   -1.014206E-02	    6.546888E-03	    3.348254E-02	   -1.000000E+00	    1.600086E-03	    1.600000E-03	    8.010000E+02	    4.772758E-07	    4.810780E-05	    8.073811E+04	    3.708300E+05	    1.000000E+00	    4.448949E-05	    2.507887E+02	
   -9.354797E-03	    7.609428E-03	    3.866746E-02	   -1.000000E+00	    1.600162E-03	    1.600000E-03	    8.010000E+02	    8.989115E-07	    6.703235E-05	    5.973103E+04	    3.651632E+05	    1.000000E+00	    5.172540E-05	    2.529163E+02	
   -8.436462E-03	    8.599710E-03	    4.348398E-02	   -1.000000E+00	    1.600272E-03	    1.600000E-03	    8.010000E+02	    1.510773E-06	    8.816220E-05	    4.674291E+04	    3.605591E+05	    1.000000E+00	    5.847312E-05	    2.552435E+02	
   -7.424088E-03	    9.474106E-03	    4.760695E-02	   -1.000000E+00	    1.600408E-03	    1.600000E-03	    8.010000E+02	    2.266838E-06	    1.089450E-04	    3.849633E+04	    3.550279E+05	    1.000000E+00	    6.443431E-05	    2.558211E+02	
   -6.363123E-03	    1.020658E-02	    5.107116E-02	   -1.000000E+00	    1.600560E-03	    1.600000E-03	    8.010000E+02	    3.108419E-06	    1.286743E-04	    3.315772E+04	    3.510199E+05	    1.000000E+00	    6.943025E-05	    2.568745E+02	
   -5.298878E-03	    1.078966E-02	    5.383217E-02	   -1.000000E+00	    1.600709E-03	    1.600000E-03	    8.010000E+02	    3.940642E-06	    1.459319E-04	    2.966304E+04	    3.480679E+05	    1.000000E+00	    7.340864E-05	    2.579404E+02	
   -4.269781E-03	    1.123103E-02	    5.592307E-02	   -1.000000E+00	    1.600842E-03	    1.600000E-03	    8.010000E+02	    4.680059E-06	    1.599293E-04	    2.737216E+04	    3.459194E+05	    1.000000E+00	    7.642103E-05	    2.588368E+02	
   -3.303864E-03	    1.154815E-02	    5.742553E-02	   -1.000000E+00	    1.600950E-03	    1.600000E-03	    8.010000E+02	    5.275549E-06	    1.704910E-04	    2.588608E+04	    3.444052E+05	    1.000000E+00	    7.858585E-05	    2.595158E+02	
   -2.418325E-03	    1.176286E-02	    5.844257E-02	   -1.000000E+00	    1.601028E-03	    1.600000E-03	    8.010000E+02	    5.711356E-06	    1.778830E-04	    2.494753E+04	    3.433868E+05	    1.000000E+00	    8.005178E-05	    2.599868E+02	
   -1.621063E-03	    1.189733E-02	    5.907898E-02	   -1.000000E+00	    1.601080E-03	    1.600000E-03	    8.010000E+02	    5.998251E-06	    1.826096E-04	    2.438549E+04	    3.427457E+05	    1.000000E+00	    8.096995E-05	    2.602818E+02	
   -9.130192E-04	    1.197160E-02	    5.942959E-02	   -1.000000E+00	    1.601109E-03	    1.600000E-03	    8.010000E+02	    6.161298E-06	    1.852479E-04	    2.408316E+04	    3.423822E+05	    1.000000E+00	    8.147711E-05	    2.604383E+02	
   -2.905222E-04	    1.200247E-02	    5.957372E-02	   -1.000000E+00	    1.601121E-03	    1.600000E-03	    8.010000E+02	    6.229735E-06	    1.863408E-04	    2.395912E+04	    3.422130E+05	    1.000000E+00	    8.168797E-05	    2.604889E+02	
    2.905222E-04	    1.200247E-02	    5.957372E-02	   -1.000000E+00	    1.601121E-03	    1.600000E-03	    8.010000E+02	    6.229735E-06	    1.863408E-04	    2.395912E+04	    3.422130E+05	    1.000000E+00	    8.168797E-05	    2.604889E+02	
    9.130192E-04	    1.197160E-02	    5.942959E-02	   -1.000000E+00	    1.601109E-03	    1.600000E-03	    8.010000E+02	    6.161298E-06	    1.852479E-04	    2.408316E+04	    3.423822E+05	    1.000000E+00	    8.147711E-05	    2.604383E+02	
    1.621063E-03	    1.189733E-02	    5.907898E-02	   -1.000000E+00	    1.601080E-03	    1.600000E-03	    8.010000E+02	    5.998251E-06	    1.826096E-04	    2.438549E+04	    3.427457E+05	    1.000000E+00	    8.096995E-05	    2.602818E+02	
    2.418325E-03	    1.176286E-02	    5.844257E-02	   -1.000000E+00	    1.601028E-03	    1.600000E-03	    8.010000E+02	    5.711356E-06	    1.778830E-04	    2.494753E+04	    3.433868E+05	    1.000000E+00	    8.005178E-05	    2.599868E+02	
    3.303864E-03	    1.154815E-02	    5.742553E-02	   -1.000000E+00	    1.600950E-03	    1.600000E-03	    8.010000E+02	    5.275549E-06	    1.704910E-04	    2.588608E+04	    3.444052E+05	    1.000000E+00	    7.858585E-05	    2.595158E+02	
    4.269781E-03	    1.123103E-02	    5.592307E-02	   -1.000000E+00	    1.600842E-03	    1.600000E-03	    8.010000E+02	    4.680059E-06	    1.599293E-04	    2.737216E+04	    3.459194E+05	    1.000000E+00	    7.642103E-05	    2.588368E+02	
    5.298878E-03	    1.078966E-02	    5.383217E-02	   -1.000000E+00	    1.600709E-03	    1.600000E-03	    8.010000E+02	    3.940642E-06	    1.459319E-04	    2.966304E+04	    3.480679E+05	    1.000000E+00	    7.340864E-05	    2.579404E+02	
    6.363123E-03	    1.020658E-02	    5.107116E-02	   -1.000000E+00	    1.600560E-03	    1.600000E-03	    8.010000E+02	    3.108419E-06	    1.286743E-04	    3.315772E+04	    3.510199E+05	    1.000000E+00	    6.943025E-05	    2.568745E+02	
    7.424088E-03	    9.474106E-03	    4.760695E-02	   -1.000000E+00	    1.600408E-03	    1.600000E-03	    8.010000E+02	    2.266838E-06	    1.089450E-04	    3.849633E+04	    3.550279E+05	    1.000000E+00	    6.443431E-05	    2.558211E+02	
    8.436462E-03	    8.599710E-03	    4.348398E-02	   -1.000000E+00	    1.600272E-03	    1.600000E-03	    8.010000E+02	    1.510773E-06	    8.816220E-05	    4.674291E+04	    3.605591E+05	    1.000000E+00	    5.847312E-05	    2.552435E+02	
    9.354797E-03	    7.609428E-03	    3.866746E-02	   -1.000000E+00	    1.600162E-03	    1.600000E-03	    8.010000E+02	    8.989115E-07	    6.703235E-05	    5.973103E+04	    3.651632E+05	    1.000000E+00	    5.172540E-05	    2.529163E+02	
    1.014206E-02	    6.546888E-03	    3.348254E-02	   -1.000000E+00	    1.600086E-03	    1.600000E-03	    8.010000E+02	    4.772758E-07	    4.810780E-05	    8.073811E+04	    3.708300E+05	    1.000000E+00	    4.448949E-05	    2.507887E+02	
    1.077706E-02	    5.467244E-03	    2.824518E-02	   -1.000000E+00	    1.600041E-03	    1.600000E-03	    8.010000E+02	    2.266748E-07	    3.278208E-05	    1.158419E+05	    3.792815E+05	    1.000000E+00	    3.714152E-05	    2.505763E+02	
    1.125764E-02	    4.427463E-03	    2.305736E-02	   -1.000000E+00	    1.600017E-03	    1.600000E-03	    8.010000E+02	    9.456781E-08	    2.086662E-05	    1.767426E+05	    3.861702E+05	    1.000000E+00	    3.006905E-05	    2.489963E+02	
    1.159858E-02	    3.476359E-03	    1.831253E-02	   -1.000000E+00	    1.600006E-03	    1.600000E-03	    8.010000E+02	    3.526280E-08	    1.262743E-05	    2.868342E+05	    3.957984E+05	    1.000000E+00	    2.360336E-05	    2.496634E+02	
    1.182548E-02	    2.647668E-03	    1.411957E-02	   -1.000000E+00	    1.600002E-03	    1.600000E-03	    8.010000E+02	    1.171207E-08	    7.233606E-06	    4.947133E+05	    4.062360E+05	    1.000000E+00	    1.797265E-05	    2.512878E+02	
    1.196743E-02	    1.957686E-03	    1.058150E-02	   -1.000000E+00	    1.600001E-03	    1.600000E-03	    8.010000E+02	    3.485383E-09	    3.938943E-06	    9.052357E+05	    4.178195E+05	    1.000000E+00	    1.328642E-05	    2.542835E+02	
    1.205121E-02	    1.406958E-03	    7.725012E-03	   -1.000000E+00	    1.600000E-03	    1.600000E-03	    8.010000E+02	    9.363419E-10	    2.049373E-06	    1.753150E+06	    4.315430E+05	    1.000000E+00	    9.547270E-06	    2.593271E+02	
    1.209813E-02	    9.843321E-04	    5.500874E-03	   -1.000000E+00	    1.600000E-03	    1.600000E-03	    8.010000E+02	    2.282430E-10	    1.020858E-06	    3.582619E+06	    4.473802E+05	    1.000000E+00	    6.678646E-06	    2.663388E+02	
    1.212324E-02	    6.716809E-04	    3.825396E-03	   -1.000000E+00	    1.600000E-03	    1.600000E-03	    8.010000E+02	    5.075801E-11	    4.876472E-07	    7.695445E+06	    4.648880E+05	    1.000000E+00	    4.556925E-06	    2.749681E+02	
    1.213623E-02	    4.481234E-04	    2.592611E-03	   -1.000000E+00	    1.600000E-03	    1.600000E-03	    8.010000E+02	    1.029120E-11	    2.221529E-07	    1.729094E+07	    4.799082E+05	    1.000000E+00	    3.040041E-06	    2.826190E+02	
    1.214281E-02	    2.931855E-04	    1.704380E-03	   -1.000000E+00	    1.600000E-03	    1.600000E-03	    8.010000E+02	    1.893743E-12	    9.551140E-08	    4.039863E+07	    4.846561E+05	    1.000000E+00	    1.988865E-06	    2.846296E+02	
    1.214612E-02	    1.887765E-04	    1.068091E-03	   -1.000000E+00	    1.600000E-03	    1.600000E-03	    8.010000E+02	    3.075088E-13	    3.741158E-08	    9.744981E+07	    4.591766E+05	    1.000000E+00	    1.280555E-06	    2.692846E+02	
    1.214782E-02	    1.201158E-04	    6.041891E-04	   -1.000000E+00	    1.600000E-03	    1.600000E-03	    8.010000E+02	    3.977464E-14	    1.195273E-08	    2.407095E+08	    3.629669E+05	    1.000000E+00	    8.147832E-07	    2.126762E+02	
    1.214870E-02	    7.587088E-05	    2.472061E-04	   -1.000000E+00	    1.600000E-03	    1.600000E-03	    8.010000E+02	    6.697727E-15	    5.044857E-09	    6.033286E+08	    1.524209E+05	    1.000000E+00	    5.146497E-07	    1.416958E+02	
    1.214897E-02	    6.022468E-05	    0.000000E+00	    0.000000E+00	    1.000000E-03	    1.000000E-03	    1.000000E+03	    0.000000E+00	    0.000000E+00	    6.526838E+05	    0.000000E+00	    1.000000E+00	    0.000000E+00	    0.000000E+00	
   -1.214803E-02	    6.020132E-05	    0.000000E+00	    0.000000E+00	    1.000000E-03	    1.000000E-03	    1.000000E+03	    0.000000E+00	    0.000000E+00	    6.526838E+05	    0.000000E+00	    1.000000E+00	    0.000000E+00	    0.000000E+00	
   -1.214751E-02	    7.583991E-05	    6.046386E-04	   -1.000000E+00	    1.600000E-03	    1.600000E-03	    8.010000E+02	    7.926964E-11	    6.459177E-08	    6.526838E+05	    9.088923E+04	    1.000000E+00	    1.705621E-06	    1.341549E+00	
   -1.214593E-02	    1.200599E-04	    1.477779E-03	   -1.000000E+00	    1.600000E-03	    1.600000E-03	    8.010000E+02	    4.359050E-14	    1.825193E-09	    3.353895E+07	    2.148666E+05	    5.613998E-04	    2.700228E-06	    9.366142E-09	
   -1.214316E-02	    1.886719E-04	    2.612268E-03	   -1.000000E+00	    1.600000E-03	    1.600000E-03	    8.010000E+02	    3.962621E-13	    6.721616E-09	    1.358700E+07	    2.716440E+05	    7.556123E-03	    4.243628E-06	    1.076422E-07	
   -1.213821E-02	    2.929835E-04	    4.167979E-03	   -1.000000E+00	    1.600000E-03	    1.600000E-03	    8.010000E+02	    2.919001E-12	    2.142457E-08	    5.879093E+06	    2.866038E+05	    1.000000E+00	    6.590452E-06	    8.365970E-07	
   -1.212921E-02	    4.477252E-04	    6.338936E-03	   -1.000000E+00	    1.600000E-03	    1.600000E-03	    8.010000E+02	    2.211544E-11	    6.949043E-08	    2.516877E+06	    2.836666E+05	    1.000000E+00	    1.007270E-05	    6.273412E-06	
   -1.211273E-02	    6.708904E-04	    9.350516E-03	   -1.000000E+00	    1.600000E-03	    1.600000E-03	    8.010000E+02	    1.577712E-10	    2.207030E-07	    1.120503E+06	    2.746137E+05	    1.000000E+00	    1.509647E-05	    4.332614E-05	
   -1.208277E-02	    9.827771E-04	    1.344059E-02	   -1.000000E+00	    1.600000E-03	    1.600000E-03	    8.010000E+02	    1.034941E-09	    6.742991E-07	    5.218788E+05	    2.640289E+05	    1.000000E+00	    2.212099E-05	    2.732542E-04	
   -1.202935E-02	    1.403970E-03	    1.886465E-02	   -1.000000E+00	    1.600001E-03	    1.600000E-03	    8.010000E+02	    6.156027E-09	    1.963867E-06	    2.555313E+05	    2.543583E+05	    1.000000E+00	    3.161382E-05	    1.565837E-03	
   -1.193724E-02	    1.952142E-03	    2.582162E-02	   -1.000000E+00	    1.600006E-03	    1.600000E-03	    8.010000E+02	    3.243300E-08	    5.346533E-06	    1.320437E+05	    2.458414E+05	    1.000000E+00	    4.397962E-05	    7.973374E-03	
   -1.178517E-02	    2.637824E-03	    3.442388E-02	   -1.000000E+00	    1.600027E-03	    1.600000E-03	    8.010000E+02	    1.493810E-07	    1.347027E-05	    7.222931E+04	    2.384572E+05	    1.000000E+00	    5.946518E-05	    3.562098E-02	
   -1.154673E-02	    3.459744E-03	    4.459624E-02	   -1.000000E+00	    1.600107E-03	    1.600000E-03	    8.010000E+02	    5.927935E-07	    3.102510E-05	    4.192203E+04	    2.315136E+05	    1.000000E+00	    7.805360E-05	    1.372398E-01	
   -1.119362E-02	    4.400918E-03	    5.607605E-02	   -1.000000E+00	    1.600362E-03	    1.600000E-03	    8.010000E+02	    2.009000E-06	    6.485360E-05	    2.585750E+04	    2.245549E+05	    1.000000E+00	    9.937412E-05	    4.511309E-01	
   -1.070148E-02	    5.427218E-03	    6.858859E-02	   -1.000000E+00	    1.601062E-03	    1.600000E-03	    8.010000E+02	    5.898456E-06	    1.248877E-04	    1.695953E+04	    2.182415E+05	    1.000000E+00	    1.226658E-04	    1.287288E+00	
   -1.005701E-02	    6.489969E-03	    8.116250E-02	   -1.000000E+00	    1.602612E-03	    1.600000E-03	    8.010000E+02	    1.451224E-05	    2.141966E-04	    1.182253E+04	    2.095702E+05	    1.000000E+00	    1.468320E-04	    3.041333E+00	
   -9.263734E-03	    7.533018E-03	    9.354698E-02	   -1.000000E+00	    1.605612E-03	    1.600000E-03	    8.010000E+02	    3.117828E-05	    3.403196E-04	    8.743139E+03	    2.009833E+05	    1.000000E+00	    1.705971E-04	    6.266314E+00	
   -8.343769E-03	    8.502585E-03	    1.049733E-01	   -1.000000E+00	    1.610424E-03	    1.600000E-03	    8.010000E+02	    5.791345E-05	    4.943896E-04	    6.837895E+03	    1.921607E+05	    1.000000E+00	    1.927300E-04	    1.112869E+01	
   -7.334325E-03	    9.356652E-03	    1.146641E-01	   -1.000000E+00	    1.616718E-03	    1.600000E-03	    8.010000E+02	    9.288022E-05	    6.527941E-04	    5.629703E+03	    1.831184E+05	    1.000000E+00	    2.122598E-04	    1.700808E+01	
   -6.280317E-03	    1.007064E-02	    1.227335E-01	   -1.000000E+00	    1.624088E-03	    1.600000E-03	    8.010000E+02	    1.338240E-04	    8.101334E-04	    4.849031E+03	    1.756229E+05	    1.000000E+00	    2.286106E-04	    2.350256E+01	
   -5.226036E-03	    1.063804E-02	    1.291055E-01	   -1.000000E+00	    1.631604E-03	    1.600000E-03	    8.010000E+02	    1.755797E-04	    9.511993E-04	    4.339401E+03	    1.697075E+05	    1.000000E+00	    2.416203E-04	    2.979718E+01	