Title="Fields"
Variables="X""Y""Velocity""Phi""Effective Viscosity""Dynamic Viscosity""Density""Eddy Viscosity""K""Omega""S""F1SST""distance""GEN"
Zone I=52 J=52 F=POINT
   -1.077692E-02	    4.749730E-05	    0.000000E+00	    0.000000E+00	    1.000000E-03	    1.000000E-03	    1.000000E+03	    0.000000E+00	    0.000000E+00	    1.568888E+09	    0.000000E+00	    1.000000E+00	    0.000000E+00	    0.000000E+00	
   -1.077051E-02	    5.980269E-05	    0.000000E+00	    0.000000E+00	    1.000000E-03	    1.000000E-03	    1.000000E+03	    0.000000E+00	    0.000000E+00	    1.568888E+09	    0.000000E+00	    1.000000E+00	    0.000000E+00	    0.000000E+00	
   -1.075231E-02	    9.452417E-05	    0.000000E+00	    0.000000E+00	    1.000000E-03	    1.000000E-03	    1.000000E+03	    0.000000E+00	    0.000000E+00	    6.279922E+08	    0.000000E+00	    1.000000E+00	    0.000000E+00	    0.000000E+00	
   -1.072390E-02	    1.481843E-04	    0.000000E+00	    0.000000E+00	    1.000000E-03	    1.000000E-03	    1.000000E+03	    0.000000E+00	    0.000000E+00	    2.555322E+08	    0.000000E+00	    1.000000E+00	    0.000000E+00	    0.000000E+00	
   -1.068032E-02	    2.292698E-04	    0.000000E+00	    0.000000E+00	    1.000000E-03	    1.000000E-03	    1.000000E+03	    0.000000E+00	    0.000000E+00	    1.067510E+08	    0.000000E+00	    1.000000E+00	    0.000000E+00	    0.000000E+00	
   -1.061480E-02	    3.484698E-04	    0.000000E+00	    0.000000E+00	    1.000000E-03	    1.000000E-03	    1.000000E+03	    0.000000E+00	    0.000000E+00	    4.621235E+07	    0.000000E+00	    1.000000E+00	    0.000000E+00	    0.000000E+00	
   -1.051852E-02	    5.181295E-04	    0.000000E+00	    0.000000E+00	    1.000000E-03	    1.000000E-03	    1.000000E+03	    0.000000E+00	    0.000000E+00	    2.090471E+07	    0.000000E+00	    1.000000E+00	    0.000000E+00	    0.000000E+00	
   -1.038047E-02	    7.508956E-04	    0.000000E+00	    0.000000E+00	    1.000000E-03	    1.000000E-03	    1.000000E+03	    0.000000E+00	    0.000000E+00	    9.954189E+06	    0.000000E+00	    1.000000E+00	    0.000000E+00	    0.000000E+00	
   -1.018767E-02	    1.057462E-03	    0.000000E+00	    0.000000E+00	    1.000000E-03	    1.000000E-03	    1.000000E+03	    0.000000E+00	    0.000000E+00	    5.019888E+06	    0.000000E+00	    1.000000E+00	    0.000000E+00	    0.000000E+00	
   -9.926031E-03	    1.443634E-03	    0.000000E+00	    0.000000E+00	    1.000000E-03	    1.000000E-03	    1.000000E+03	    0.000000E+00	    0.000000E+00	    2.693907E+06	    0.000000E+00	    1.000000E+00	    0.000000E+00	    0.000000E+00	
   -9.581877E-03	    1.907369E-03	    0.000000E+00	    0.000000E+00	    1.000000E-03	    1.000000E-03	    1.000000E+03	    0.000000E+00	    0.000000E+00	    1.543533E+06	    0.000000E+00	    1.000000E+00	    0.000000E+00	    0.000000E+00	
   -9.144496E-03	    2.436794E-03	    0.000000E+00	    0.000000E+00	    1.000000E-03	    1.000000E-03	    1.000000E+03	    0.000000E+00	    0.000000E+00	    9.459073E+05	    0.000000E+00	    1.000000E+00	    0.000000E+00	    0.000000E+00	
   -8.609133E-03	    3.010276E-03	    0.000000E+00	    0.000000E+00	    1.000000E-03	    1.000000E-03	    1.000000E+03	    0.000000E+00	    0.000000E+00	    6.199875E+05	    0.000000E+00	    1.000000E+00	    0.000000E+00	    0.000000E+00	
   -7.979627E-03	    3.599068E-03	    0.000000E+00	    0.000000E+00	    1.000000E-03	    1.000000E-03	    1.000000E+03	    0.000000E+00	    0.000000E+00	    4.338386E+05	    0.000000E+00	    1.000000E+00	    0.000000E+00	    0.000000E+00	
   -7.269511E-03	    4.172084E-03	    0.000000E+00	    0.000000E+00	    1.000000E-03	    1.000000E-03	    1.000000E+03	    0.000000E+00	    0.000000E+00	    3.229327E+05	    0.000000E+00	    1.000000E+00	    0.000000E+00	    0.000000E+00	
   -6.500795E-03	    4.701359E-03	    0.000000E+00	    0.000000E+00	    1.000000E-03	    1.000000E-03	    1.000000E+03	    0.000000E+00	    0.000000E+00	    2.543743E+05	    0.000000E+00	    1.000000E+00	    0.000000E+00	    0.000000E+00	
   -5.700648E-03	    5.166388E-03	    0.000000E+00	    0.000000E+00	    1.000000E-03	    1.000000E-03	    1.000000E+03	    0.000000E+00	    0.000000E+00	    2.106861E+05	    0.000000E+00	    1.000000E+00	    0.000000E+00	    0.000000E+00	
   -4.897102E-03	    5.556144E-03	    0.000000E+00	    0.000000E+00	    1.000000E-03	    1.000000E-03	    1.000000E+03	    0.000000E+00	    0.000000E+00	    1.821960E+05	    0.000000E+00	    1.000000E+00	    0.000000E+00	    0.000000E+00	
   -4.115167E-03	    5.868632E-03	    0.000000E+00	    0.000000E+00	    1.000000E-03	    1.000000E-03	    1.000000E+03	    0.000000E+00	    0.000000E+00	    1.633326E+05	    0.000000E+00	    1.000000E+00	    0.000000E+00	    0.000000E+00	
   -3.374358E-03	    6.108778E-03	    0.000000E+00	    0.000000E+00	    1.000000E-03	    1.000000E-03	    1.000000E+03	    0.000000E+00	    0.000000E+00	    1.507597E+05	    0.000000E+00	    1.000000E+00	    0.000000E+00	    0.000000E+00	
   -2.687829E-03	    6.285720E-03	    0.000000E+00	    0.000000E+00	    1.000000E-03	    1.000000E-03	    1.000000E+03	    0.000000E+00	    0.000000E+00	    1.424028E+05	    0.000000E+00	    1.000000E+00	    0.000000E+00	    0.000000E+00	
   -2.062781E-03	    6.410365E-03	    0.000000E+00	    0.000000E+00	    1.000000E-03	    1.000000E-03	    1.000000E+03	    0.000000E+00	    0.000000E+00	    1.369265E+05	    0.000000E+00	    1.000000E+00	    0.000000E+00	    0.000000E+00	
   -1.501580E-03	    6.493606E-03	    0.000000E+00	    0.000000E+00	    1.000000E-03	    1.000000E-03	    1.000000E+03	    0.000000E+00	    0.000000E+00	    1.334436E+05	    0.000000E+00	    1.000000E+00	    0.000000E+00	    0.000000E+00	
   -1.003088E-03	    6.545273E-03	    0.000000E+00	    0.000000E+00	    1.000000E-03	    1.000000E-03	    1.000000E+03	    0.000000E+00	    0.000000E+00	    1.313482E+05	    0.000000E+00	    1.000000E+00	    0.000000E+00	    0.000000E+00	
   -5.638917E-04	    6.573659E-03	    0.000000E+00	    0.000000E+00	    1.000000E-03	    1.000000E-03	    1.000000E+03	    0.000000E+00	    0.000000E+00	    1.302180E+05	    0.000000E+00	    1.000000E+00	    0.000000E+00	    0.000000E+00	
   -1.792889E-04	    6.585428E-03	    0.000000E+00	    0.000000E+00	    1.000000E-03	    1.000000E-03	    1.000000E+03	    0.000000E+00	    0.000000E+00	    1.297537E+05	    0.000000E+00	    1.000000E+00	    0.000000E+00	    0.000000E+00	
    1.792889E-04	    6.585428E-03	    0.000000E+00	    0.000000E+00	    1.000000E-03	    1.000000E-03	    1.000000E+03	    0.000000E+00	    0.000000E+00	    1.297537E+05	    0.000000E+00	    1.000000E+00	    0.000000E+00	    0.000000E+00	
    5.638917E-04	    6.573659E-03	    0.000000E+00	    0.000000E+00	    1.000000E-03	    1.000000E-03	    1.000000E+03	    0.000000E+00	    0.000000E+00	    1.302180E+05	    0.000000E+00	    1.000000E+00	    0.000000E+00	    0.000000E+00	
    1.003088E-03	    6.545273E-03	    0.000000E+00	    0.000000E+00	    1.000000E-03	    1.000000E-03	    1.000000E+03	    0.000000E+00	    0.000000E+00	    1.313482E+05	    0.000000E+00	    1.000000E+00	    0.000000E+00	    0.000000E+00	
    1.501580E-03	    6.493606E-03	    0.000000E+00	    0.000000E+00	    1.000000E-03	    1.000000E-03	    1.000000E+03	    0.000000E+00	    0.000000E+00	    1.334436E+05	    0.000000E+00	    1.000000E+00	    0.000000E+00	    0.000000E+00	
    2.062781E-03	    6.410365E-03	    0.000000E+00	    0.000000E+00	    1.000000E-03	    1.000000E-03	    1.000000E+03	    0.000000E+00	    0.000000E+00	    1.369265E+05	    0.000000E+00	    1.000000E+00	    0.000000E+00	    0.000000E+00	
    2.687829E-03	    6.285720E-03	    0.000000E+00	    0.000000E+00	    1.000000E-03	    1.000000E-03	    1.000000E+03	    0.000000E+00	    0.000000E+00	    1.424028E+05	    0.000000E+00	    1.000000E+00	    0.000000E+00	    0.000000E+00	
    3.374358E-03	    6.108778E-03	    0.000000E+00	    0.000000E+00	    1.000000E-03	    1.000000E-03	    1.000000E+03	    0.000000E+00	    0.000000E+00	    1.507597E+05	    0.000000E+00	    1.000000E+00	    0.000000E+00	    0.000000E+00	
    4.115167E-03	    5.868632E-03	    0.000000E+00	    0.000000E+00	    1.000000E-03	    1.000000E-03	    1.000000E+03	    0.000000E+00	    0.000000E+00	    1.633326E+05	    0.000000E+00	    1.000000E+00	    0.000000E+00	    0.000000E+00	
    4.897102E-03	    5.556144E-03	    0.000000E+00	    0.000000E+00	    1.000000E-03	    1.000000E-03	    1.000000E+03	    0.000000E+00	    0.000000E+00	    1.821960E+05	    0.000000E+00	    1.000000E+00	    0.000000E+00	    0.000000E+00	
    5.700648E-03	    5.166388E-03	    0.000000E+00	    0.000000E+00	    1.000000E-03	    1.000000E-03	    1.000000E+03	    0.000000E+00	    0.000000E+00	    2.106861E+05	    0.000000E+00	    1.000000E+00	    0.000000E+00	    0.000000E+00	
    6.500795E-03	    4.701359E-03	    0.000000E+00	    0.000000E+00	    1.000000E-03	    1.000000E-03	    1.000000E+03	    0.000000E+00	    0.000000E+00	    2.543743E+05	    0.000000E+00	    1.000000E+00	    0.000000E+00	    0.000000E+00	
    7.269511E-03	    4.172084E-03	    0.000000E+00	    0.000000E+00	    1.000000E-03	    1.000000E-03	    1.000000E+03	    0.000000E+00	    0.000000E+00	    3.229327E+05	    0.000000E+00	    1.000000E+00	    0.000000E+00	    0.000000E+00	
    7.979627E-03	    3.599068E-03	    0.000000E+00	    0.000000E+00	    1.000000E-03	    1.000000E-03	    1.000000E+03	    0.000000E+00	    0.000000E+00	    4.338386E+05	    0.000000E+00	    1.000000E+00	    0.000000E+00	    0.000000E+00	
    8.609133E-03	    3.010276E-03	    0.000000E+00	    0.000000E+00	    1.000000E-03	    1.000000E-03	    1.000000E+03	    0.000000E+00	    0.000000E+00	    6.199875E+05	    0.000000E+00	    1.000000E+00	    0.000000E+00	    0.000000E+00	
    9.144496E-03	    2.436794E-03	    0.000000E+00	    0.000000E+00	    1.000000E-03	    1.000000E-03	    1.000000E+03	    0.000000E+00	    0.000000E+00	    9.459073E+05	    0.000000E+00	    1.000000E+00	    0.000000E+00	    0.000000E+00	
    9.581877E-03	    1.907369E-03	    0.000000E+00	    0.000000E+00	    1.000000E-03	    1.000000E-03	    1.000000E+03	    0.000000E+00	    0.000000E+00	    1.543533E+06	    0.000000E+00	    1.000000E+00	    0.000000E+00	    0.000000E+00	
    9.926031E-03	    1.443634E-03	    0.000000E+00	    0.000000E+00	    1.000000E-03	    1.000000E-03	    1.000000E+03	    0.000000E+00	    0.000000E+00	    2.693907E+06	    0.000000E+00	    1.000000E+00	    0.000000E+00	    0.000000E+00	
    1.018767E-02	    1.057462E-03	    0.000000E+00	    0.000000E+00	    1.000000E-03	    1.000000E-03	    1.000000E+03	    0.000000E+00	    0.000000E+00	    5.019888E+06	    0.000000E+00	    1.000000E+00	    0.000000E+00	    0.000000E+00	
    1.038047E-02	    7.508956E-04	    0.000000E+00	    0.000000E+00	    1.000000E-03	    1.000000E-03	    1.000000E+03	    0.000000E+00	    0.000000E+00	    9.954189E+06	    0.000000E+00	    1.000000E+00	    0.000000E+00	    0.000000E+00	
    1.051852E-02	    5.181295E-04	    0.000000E+00	    0.000000E+00	    1.000000E-03	    1.000000E-03	    1.000000E+03	    0.000000E+00	    0.000000E+00	    2.090471E+07	    0.000000E+00	    1.000000E+00	    0.000000E+00	    0.000000E+00	
    1.061480E-02	    3.484698E-04	    0.000000E+00	    0.000000E+00	    1.000000E-03	    1.000000E-03	    1.000000E+03	    0.000000E+00	    0.000000E+00	    4.621235E+07	    0.000000E+00	    1.000000E+00	    0.000000E+00	    0.000000E+00	
    1.068032E-02	    2.292698E-04	    0.000000E+00	    0.000000E+00	    1.000000E-03	    1.000000E-03	    1.000000E+03	    0.000000E+00	    0.000000E+00	    1.067510E+08	    0.000000E+00	    1.000000E+00	    0.000000E+00	    0.000000E+00	
    1.072390E-02	    1.481843E-04	    0.000000E+00	    0.000000E+00	    1.000000E-03	    1.000000E-03	    1.000000E+03	    0.000000E+00	    0.000000E+00	    2.555322E+08	    0.000000E+00	    1.000000E+00	    0.000000E+00	    0.000000E+00	
    1.075231E-02	    9.452417E-05	    0.000000E+00	    0.000000E+00	    1.000000E-03	    1.000000E-03	    1.000000E+03	    0.000000E+00	    0.000000E+00	    6.279922E+08	    0.000000E+00	    1.000000E+00	    0.000000E+00	    0.000000E+00	
    1.077051E-02	    5.980269E-05	    0.000000E+00	    0.000000E+00	    1.000000E-03	    1.000000E-03	    1.000000E+03	    0.000000E+00	    0.000000E+00	    1.568888E+09	    0.000000E+00	    1.000000E+00	    0.000000E+00	    0.000000E+00	
    1.077692E-02	    4.749730E-05	    0.000000E+00	    0.000000E+00	    1.000000E-03	    1.000000E-03	    1.000000E+03	    0.000000E+00	    0.000000E+00	    0.000000E+00	    0.000000E+00	    1.000000E+00	    0.000000E+00	    0.000000E+00	
   -1.077670E-02	    4.737972E-05	    0.000000E+00	    0.000000E+00	    1.000000E-03	    1.000000E-03	    1.000000E+03	    0.000000E+00	    0.000000E+00	    0.000000E+00	    0.000000E+00	    1.000000E+00	    0.000000E+00	    0.000000E+00	
   -1.077022E-02	    5.965432E-05	    2.158322E-04	   -1.000000E+00	    1.600000E-03	    1.600000E-03	    8.010000E+02	    2.380373E-15	    4.662345E-09	    1.568888E+09	    3.020167E+05	    1.000000E+00	    3.191485E-07	    3.092642E+02	
   -1.075186E-02	    9.428822E-05	    5.412601E-04	   -1.000000E+00	    1.600000E-03	    1.600000E-03	    8.010000E+02	    1.223373E-14	    9.591368E-09	    6.279922E+08	    7.599869E+05	    1.000000E+00	    5.044424E-07	    4.452663E+02	
   -1.072320E-02	    1.478109E-04	    9.741503E-04	   -1.000000E+00	    1.600000E-03	    1.600000E-03	    8.010000E+02	    9.752659E-14	    3.111259E-08	    2.555322E+08	    1.001648E+06	    1.000000E+00	    7.907986E-07	    5.872988E+02	
   -1.067925E-02	    2.286840E-04	    1.566223E-03	   -1.000000E+00	    1.600000E-03	    1.600000E-03	    8.010000E+02	    6.046340E-13	    8.058088E-08	    1.067510E+08	    1.081609E+06	    1.000000E+00	    1.223497E-06	    6.348349E+02	
   -1.061318E-02	    3.475612E-04	    2.373498E-03	   -1.000000E+00	    1.600000E-03	    1.600000E-03	    8.010000E+02	    3.219359E-12	    1.857355E-07	    4.621235E+07	    1.075195E+06	    1.000000E+00	    1.859558E-06	    6.322861E+02	
   -1.051613E-02	    5.167401E-04	    3.461079E-03	   -1.000000E+00	    1.600000E-03	    1.600000E-03	    8.010000E+02	    1.521884E-11	    3.971853E-07	    2.090471E+07	    1.034090E+06	    1.000000E+00	    2.764819E-06	    6.099181E+02	
   -1.037705E-02	    7.488056E-04	    4.898656E-03	   -1.000000E+00	    1.600000E-03	    1.600000E-03	    8.010000E+02	    6.456770E-11	    8.023958E-07	    9.954189E+06	    9.861986E+05	    1.000000E+00	    4.006690E-06	    5.842470E+02	
   -1.018295E-02	    1.054377E-03	    6.746785E-03	   -1.000000E+00	    1.600000E-03	    1.600000E-03	    8.010000E+02	    2.457845E-10	    1.540338E-06	    5.019888E+06	    9.431369E+05	    1.000000E+00	    5.642112E-06	    5.622355E+02	
   -9.919748E-03	    1.439179E-03	    9.040690E-03	   -1.000000E+00	    1.600000E-03	    1.600000E-03	    8.010000E+02	    8.355968E-10	    2.810262E-06	    2.693907E+06	    9.084932E+05	    1.000000E+00	    7.701892E-06	    5.461059E+02	
   -9.573866E-03	    1.901096E-03	    1.176125E-02	   -1.000000E+00	    1.600000E-03	    1.600000E-03	    8.010000E+02	    2.517418E-09	    4.851084E-06	    1.543533E+06	    8.805902E+05	    1.000000E+00	    1.017492E-05	    5.348204E+02	
   -9.134731E-03	    2.428216E-03	    1.483180E-02	   -1.000000E+00	    1.600001E-03	    1.600000E-03	    8.010000E+02	    6.684171E-09	    7.893391E-06	    9.459073E+05	    8.577729E+05	    1.000000E+00	    1.299764E-05	    5.272219E+02	
   -8.597778E-03	    2.998926E-03	    1.813447E-02	   -1.000000E+00	    1.600003E-03	    1.600000E-03	    8.010000E+02	    1.563203E-08	    1.209946E-05	    6.199875E+05	    8.400246E+05	    1.000000E+00	    1.605453E-05	    5.231058E+02	
   -7.967048E-03	    3.584573E-03	    2.149361E-02	   -1.000000E+00	    1.600006E-03	    1.600000E-03	    8.010000E+02	    3.219933E-08	    1.743984E-05	    4.338386E+05	    8.252705E+05	    1.000000E+00	    1.919222E-05	    5.208671E+02	
   -7.256230E-03	    4.154239E-03	    2.474426E-02	   -1.000000E+00	    1.600011E-03	    1.600000E-03	    8.010000E+02	    5.876459E-08	    2.369165E-05	    3.229327E+05	    8.136951E+05	    1.000000E+00	    2.224507E-05	    5.202373E+02	
   -6.487414E-03	    4.680165E-03	    2.770255E-02	   -1.000000E+00	    1.600017E-03	    1.600000E-03	    8.010000E+02	    9.561272E-08	    3.036382E-05	    2.543743E+05	    8.029162E+05	    1.000000E+00	    2.506419E-05	    5.193824E+02	
   -5.687757E-03	    5.142051E-03	    3.030991E-02	   -1.000000E+00	    1.600025E-03	    1.600000E-03	    8.010000E+02	    1.409722E-07	    3.707975E-05	    2.106861E+05	    7.956886E+05	    1.000000E+00	    2.754058E-05	    5.201199E+02	
   -4.885194E-03	    5.529027E-03	    3.250090E-02	   -1.000000E+00	    1.600034E-03	    1.600000E-03	    8.010000E+02	    1.905938E-07	    4.335259E-05	    1.821960E+05	    7.908188E+05	    1.000000E+00	    2.961574E-05	    5.215002E+02	
   -4.104599E-03	    5.839192E-03	    3.424646E-02	   -1.000000E+00	    1.600043E-03	    1.600000E-03	    8.010000E+02	    2.391363E-07	    4.876251E-05	    1.633326E+05	    7.868511E+05	    1.000000E+00	    3.127925E-05	    5.224478E+02	
   -3.365339E-03	    6.077494E-03	    3.555625E-02	   -1.000000E+00	    1.600051E-03	    1.600000E-03	    8.010000E+02	    2.818510E-07	    5.304838E-05	    1.507597E+05	    7.826598E+05	    1.000000E+00	    3.255749E-05	    5.222121E+02	
   -2.680438E-03	    6.253047E-03	    3.652325E-02	   -1.000000E+00	    1.600057E-03	    1.600000E-03	    8.010000E+02	    3.170075E-07	    5.635799E-05	    1.424028E+05	    7.798569E+05	    1.000000E+00	    3.349923E-05	    5.222449E+02	
   -2.056996E-03	    6.376696E-03	    3.720527E-02	   -1.000000E+00	    1.600062E-03	    1.600000E-03	    8.010000E+02	    3.437801E-07	    5.876731E-05	    1.369265E+05	    7.780071E+05	    1.000000E+00	    3.416258E-05	    5.223574E+02	
   -1.497315E-03	    6.459265E-03	    3.766074E-02	   -1.000000E+00	    1.600065E-03	    1.600000E-03	    8.010000E+02	    3.626211E-07	    6.041132E-05	    1.334436E+05	    7.768094E+05	    1.000000E+00	    3.460557E-05	    5.224598E+02	
   -1.000216E-03	    6.510511E-03	    3.794316E-02	   -1.000000E+00	    1.600067E-03	    1.600000E-03	    8.010000E+02	    3.747094E-07	    6.144497E-05	    1.313482E+05	    7.760685E+05	    1.000000E+00	    3.488052E-05	    5.225256E+02	
   -5.622702E-04	    6.538665E-03	    3.809784E-02	   -1.000000E+00	    1.600069E-03	    1.600000E-03	    8.010000E+02	    3.814736E-07	    6.201591E-05	    1.302180E+05	    7.756468E+05	    1.000000E+00	    3.503157E-05	    5.225520E+02	
   -1.787724E-04	    6.550338E-03	    3.816118E-02	   -1.000000E+00	    1.600069E-03	    1.600000E-03	    8.010000E+02	    3.842892E-07	    6.225086E-05	    1.297537E+05	    7.754407E+05	    1.000000E+00	    3.509420E-05	    5.225412E+02	
    1.787724E-04	    6.550338E-03	    3.816118E-02	   -1.000000E+00	    1.600069E-03	    1.600000E-03	    8.010000E+02	    3.842892E-07	    6.225086E-05	    1.297537E+05	    7.754407E+05	    1.000000E+00	    3.509420E-05	    5.225412E+02	
    5.622702E-04	    6.538665E-03	    3.809784E-02	   -1.000000E+00	    1.600069E-03	    1.600000E-03	    8.010000E+02	    3.814736E-07	    6.201591E-05	    1.302180E+05	    7.756468E+05	    1.000000E+00	    3.503157E-05	    5.225520E+02	
    1.000216E-03	    6.510511E-03	    3.794316E-02	   -1.000000E+00	    1.600067E-03	    1.600000E-03	    8.010000E+02	    3.747094E-07	    6.144497E-05	    1.313482E+05	    7.760685E+05	    1.000000E+00	    3.488052E-05	    5.225256E+02	
    1.497315E-03	    6.459265E-03	    3.766074E-02	   -1.000000E+00	    1.600065E-03	    1.600000E-03	    8.010000E+02	    3.626211E-07	    6.041132E-05	    1.334436E+05	    7.768094E+05	    1.000000E+00	    3.460557E-05	    5.224598E+02	
    2.056996E-03	    6.376696E-03	    3.720527E-02	   -1.000000E+00	    1.600062E-03	    1.600000E-03	    8.010000E+02	    3.437801E-07	    5.876731E-05	    1.369265E+05	    7.780071E+05	    1.000000E+00	    3.416258E-05	    5.223574E+02	
    2.680438E-03	    6.253047E-03	    3.652325E-02	   -1.000000E+00	    1.600057E-03	    1.600000E-03	    8.010000E+02	    3.170075E-07	    5.635799E-05	    1.424028E+05	    7.798569E+05	    1.000000E+00	    3.349923E-05	    5.222449E+02	
    3.365339E-03	    6.077494E-03	    3.555625E-02	   -1.000000E+00	    1.600051E-03	    1.600000E-03	    8.010000E+02	    2.818510E-07	    5.304838E-05	    1.507597E+05	    7.826598E+05	    1.000000E+00	    3.255749E-05	    5.222121E+02	
    4.104599E-03	    5.839192E-03	    3.424646E-02	   -1.000000E+00	    1.600043E-03	    1.600000E-03	    8.010000E+02	    2.391363E-07	    4.876251E-05	    1.633326E+05	    7.868511E+05	    1.000000E+00	    3.127925E-05	    5.224478E+02	
    4.885194E-03	    5.529027E-03	    3.250090E-02	   -1.000000E+00	    1.600034E-03	    1.600000E-03	    8.010000E+02	    1.905938E-07	    4.335259E-05	    1.821960E+05	    7.908188E+05	    1.000000E+00	    2.961574E-05	    5.215002E+02	
    5.687757E-03	    5.142051E-03	    3.030991E-02	   -1.000000E+00	    1.600025E-03	    1.600000E-03	    8.010000E+02	    1.409722E-07	    3.707975E-05	    2.106861E+05	    7.956886E+05	    1.000000E+00	    2.754058E-05	    5.201199E+02	
    6.487414E-03	    4.680165E-03	    2.770255E-02	   -1.000000E+00	    1.600017E-03	    1.600000E-03	    8.010000E+02	    9.561272E-08	    3.036382E-05	    2.543743E+05	    8.029162E+05	    1.000000E+00	    2.506419E-05	    5.193824E+02	
    7.256230E-03	    4.154239E-03	    2.474426E-02	   -1.000000E+00	    1.600011E-03	    1.600000E-03	    8.010000E+02	    5.876459E-08	    2.369165E-05	    3.229327E+05	    8.136951E+05	    1.000000E+00	    2.224507E-05	    5.202373E+02	
    7.967048E-03	    3.584573E-03	    2.149361E-02	   -1.000000E+00	    1.600006E-03	    1.600000E-03	    8.010000E+02	    3.219933E-08	    1.743984E-05	    4.338386E+05	    8.252705E+05	    1.000000E+00	    1.919222E-05	    5.208671E+02	
    8.597778E-03	    2.998926E-03	    1.813447E-02	   -1.000000E+00	    1.600003E-03	    1.600000E-03	    8.010000E+02	    1.563203E-08	    1.209946E-05	    6.199875E+05	    8.400246E+05	    1.000000E+00	    1.605453E-05	    5.231058E+02	
    9.134731E-03	    2.428216E-03	    1.483180E-02	   -1.000000E+00	    1.600001E-03	    1.600000E-03	    8.010000E+02	    6.684171E-09	    7.893391E-06	    9.459073E+05	    8.577729E+05	    1.000000E+00	    1.299764E-05	    5.272219E+02	
    9.573866E-03	    1.901096E-03	    1.176125E-02	   -1.000000E+00	    1.600000E-03	    1.600000E-03	    8.010000E+02	    2.517418E-09	    4.851084E-06	    1.543533E+06	    8.805902E+05	    1.000000E+00	    1.017492E-05	    5.348204E+02	
    9.919748E-03	    1.439179E-03	    9.040690E-03	   -1.000000E+00	    1.600000E-03	    1.600000E-03	    8.010000E+02	    8.355968E-10	    2.810262E-06	    2.693907E+06	    9.084932E+05	    1.000000E+00	    7.701892E-06	    5.461059E+02	
    1.018295E-02	    1.054377E-03	    6.746785E-03	   -1.000000E+00	    1.600000E-03	    1.600000E-03	    8.010000E+02	    2.457845E-10	    1.540338E-06	    5.019888E+06	    9.431369E+05	    1.000000E+00	    5.642112E-06	    5.622355E+02	
    1.037705E-02	    7.488056E-04	    4.898656E-03	   -1.000000E+00	    1.600000E-03	    1.600000E-03	    8.010000E+02	    6.456770E-11	    8.023958E-07	    9.954189E+06	    9.861986E+05	    1.000000E+00	    4.006690E-06	    5.842470E+02	
    1.051613E-02	    5.167401E-04	    3.461079E-03	   -1.000000E+00	    1.600000E-03	    1.600000E-03	    8.010000E+02	    1.521884E-11	    3.971853E-07	    2.090471E+07	    1.034090E+06	    1.000000E+00	    2.764819E-06	    6.099181E+02	
    1.061318E-02	    3.475612E-04	    2.373498E-03	   -1.000000E+00	    1.600000E-03	    1.600000E-03	    8.010000E+02	    3.219359E-12	    1.857355E-07	    4.621235E+07	    1.075195E+06	    1.000000E+00	    1.859558E-06	    6.322861E+02	
    1.067925E-02	    2.286840E-04	    1.566223E-03	   -1.000000E+00	    1.600000E-03	    1.600000E-03	    8.010000E+02	    6.046340E-13	    8.058088E-08	    1.067510E+08	    1.081609E+06	    1.000000E+00	    1.223497E-06	    6.348349E+02	
    1.072320E-02	    1.478109E-04	    9.741503E-04	   -1.000000E+00	    1.600000E-03	    1.600000E-03	    8.010000E+02	    9.752659E-14	    3.111259E-08	    2.555322E+08	    1.001648E+06	    1.000000E+00	    7.907986E-07	    5.872988E+02	
    1.075186E-02	    9.428822E-05	    5.412601E-04	   -1.000000E+00	    1.600000E-03	    1.600000E-03	    8.010000E+02	    1.223373E-14	    9.591368E-09	    6.279922E+08	    7.599869E+05	    1.000000E+00	    5.044424E-07	    4.452663E+02	
    1.077022E-02	    5.965432E-05	    2.158322E-04	   -1.000000E+00	    1.600000E-03	    1.600000E-03	    8.010000E+02	    2.380373E-15	    4.662345E-09	    1.568888E+09	    3.020167E+05	    1.000000E+00	    3.191485E-07	    3.092642E+02	
    1.077670E-02	    4.737972E-05	    0.000000E+00	    0.000000E+00	    1.000000E-03	    1.000000E-03	    1.000000E+03	    0.000000E+00	    0.000000E+00	    8.299130E+05	    0.000000E+00	    1.000000E+00	    0.000000E+00	    0.000000E+00	
   -1.077618E-02	    4.710352E-05	    0.000000E+00	    0.000000E+00	    1.000000E-03	    1.000000E-03	    1.000000E+03	    0.000000E+00	    0.000000E+00	    8.299130E+05	    0.000000E+00	    1.000000E+00	    0.000000E+00	    0.000000E+00	
   -1.076957E-02	    5.930584E-05	    5.279467E-04	   -1.000000E+00	    1.600000E-03	    1.600000E-03	    8.010000E+02	    6.650982E-11	    6.891057E-08	    8.299130E+05	    1.793839E+05	    1.000000E+00	    1.057733E-06	    1.538455E+00	
   -1.075083E-02	    9.373412E-05	    1.323989E-03	   -1.000000E+00	    1.600000E-03	    1.600000E-03	    8.010000E+02	    1.328763E-14	    1.451560E-09	    8.750242E+07	    4.497713E+05	    5.126069E-04	    1.671811E-06	    5.976394E-09	
   -1.072160E-02	    1.469343E-04	    2.382816E-03	   -1.000000E+00	    1.600000E-03	    1.600000E-03	    8.010000E+02	    1.231197E-13	    5.474846E-09	    3.561860E+07	    5.926028E+05	    5.053784E-03	    2.620774E-06	    7.296108E-08	
   -1.067677E-02	    2.273091E-04	    3.830803E-03	   -1.000000E+00	    1.600000E-03	    1.600000E-03	    8.010000E+02	    8.689948E-13	    1.685042E-08	    1.553196E+07	    6.397778E+05	    1.000000E+00	    4.054606E-06	    5.559636E-07	
   -1.060944E-02	    3.454301E-04	    5.804684E-03	   -1.000000E+00	    1.600000E-03	    1.600000E-03	    8.010000E+02	    6.010140E-12	    5.045725E-08	    6.724677E+06	    6.358178E+05	    1.000000E+00	    6.162110E-06	    3.821354E-06	
   -1.051063E-02	    5.134835E-04	    8.463126E-03	   -1.000000E+00	    1.600000E-03	    1.600000E-03	    8.010000E+02	    3.845356E-11	    1.460636E-07	    3.042552E+06	    6.112808E+05	    1.000000E+00	    9.161134E-06	    2.350592E-05	
   -1.036918E-02	    7.439116E-04	    1.197557E-02	   -1.000000E+00	    1.600000E-03	    1.600000E-03	    8.010000E+02	    2.265243E-10	    4.098195E-07	    1.449140E+06	    5.826601E+05	    1.000000E+00	    1.327447E-05	    1.319867E-04	
   -1.017208E-02	    1.047162E-03	    1.648850E-02	   -1.000000E+00	    1.600000E-03	    1.600000E-03	    8.010000E+02	    1.201813E-09	    1.096852E-06	    7.310443E+05	    5.568138E+05	    1.000000E+00	    1.868986E-05	    6.691862E-04	
   -9.905299E-03	    1.428774E-03	    2.208582E-02	   -1.000000E+00	    1.600001E-03	    1.600000E-03	    8.010000E+02	    5.613684E-09	    2.750617E-06	    3.924774E+05	    5.358570E+05	    1.000000E+00	    2.550804E-05	    3.008132E-03	
   -9.555453E-03	    1.886469E-03	    2.871811E-02	   -1.000000E+00	    1.600004E-03	    1.600000E-03	    8.010000E+02	    2.256636E-08	    6.338615E-06	    2.249911E+05	    5.187884E+05	    1.000000E+00	    3.369062E-05	    1.170717E-02	
   -9.112303E-03	    2.408250E-03	    3.619546E-02	   -1.000000E+00	    1.600014E-03	    1.600000E-03	    8.010000E+02	    7.708939E-08	    1.327711E-05	    1.379563E+05	    5.046179E+05	    1.000000E+00	    4.302561E-05	    3.890069E-02	
   -8.571722E-03	    2.972551E-03	    4.422829E-02	   -1.000000E+00	    1.600040E-03	    1.600000E-03	    8.010000E+02	    2.236361E-07	    2.526029E-05	    9.047510E+04	    4.933149E+05	    1.000000E+00	    5.312937E-05	    1.103230E-01	
   -7.938205E-03	    3.550946E-03	    5.238749E-02	   -1.000000E+00	    1.600099E-03	    1.600000E-03	    8.010000E+02	    5.510025E-07	    4.357485E-05	    6.334537E+04	    4.835999E+05	    1.000000E+00	    6.349418E-05	    2.664648E-01	
   -7.225803E-03	    4.112902E-03	    6.027247E-02	   -1.000000E+00	    1.600209E-03	    1.600000E-03	    8.010000E+02	    1.161667E-06	    6.841539E-05	    4.717420E+04	    4.755403E+05	    1.000000E+00	    7.357284E-05	    5.524197E-01	
   -6.456784E-03	    4.631136E-03	    6.743749E-02	   -1.000000E+00	    1.600381E-03	    1.600000E-03	    8.010000E+02	    2.116060E-06	    9.820145E-05	    3.717255E+04	    4.677062E+05	    1.000000E+00	    8.287476E-05	    9.896945E-01	
   -5.658265E-03	    5.085813E-03	    7.374475E-02	   -1.000000E+00	    1.600615E-03	    1.600000E-03	    8.010000E+02	    3.414460E-06	    1.312735E-04	    3.079553E+04	    4.617878E+05	    1.000000E+00	    9.104174E-05	    1.576756E+00	
   -4.857968E-03	    5.466425E-03	    7.903877E-02	   -1.000000E+00	    1.600890E-03	    1.600000E-03	    8.010000E+02	    4.946861E-06	    1.644917E-04	    2.663463E+04	    4.571983E+05	    1.000000E+00	    9.788254E-05	    2.261696E+00	
   -4.080448E-03	    5.771273E-03	    8.325186E-02	   -1.000000E+00	    1.601175E-03	    1.600000E-03	    8.010000E+02	    6.525627E-06	    1.945340E-04	    2.387843E+04	    4.532461E+05	    1.000000E+00	    1.033644E-04	    2.957715E+00	
   -3.344735E-03	    6.005361E-03	    8.640897E-02	   -1.000000E+00	    1.601432E-03	    1.600000E-03	    8.010000E+02	    7.955170E-06	    2.188991E-04	    2.204078E+04	    4.493980E+05	    1.000000E+00	    1.075755E-04	    3.575037E+00	