Title="Fields"
Variables="X""Y""Velocity""Phi""Effective Viscosity""Dynamic Viscosity""Density""Eddy Viscosity""K""Omega""S""F1SST""distance""GEN"
Zone I=52 J=52 F=POINT
   -1.214864E-02	    6.022430E-05	    0.000000E+00	    0.000000E+00	    1.000000E-03	    1.000000E-03	    1.000000E+03	    0.000000E+00	    0.000000E+00	    3.039697E+08	    0.000000E+00	    1.000000E+00	    0.000000E+00	    0.000000E+00	
   -1.214840E-02	    7.587059E-05	    0.000000E+00	    0.000000E+00	    1.000000E-03	    1.000000E-03	    1.000000E+03	    0.000000E+00	    0.000000E+00	    3.039697E+08	    0.000000E+00	    1.000000E+00	    0.000000E+00	    0.000000E+00	
   -1.214760E-02	    1.201162E-04	    0.000000E+00	    0.000000E+00	    1.000000E-03	    1.000000E-03	    1.000000E+03	    0.000000E+00	    0.000000E+00	    1.212788E+08	    0.000000E+00	    1.000000E+00	    0.000000E+00	    0.000000E+00	
   -1.214604E-02	    1.887791E-04	    0.000000E+00	    0.000000E+00	    1.000000E-03	    1.000000E-03	    1.000000E+03	    0.000000E+00	    0.000000E+00	    4.910171E+07	    0.000000E+00	    1.000000E+00	    0.000000E+00	    0.000000E+00	
   -1.214292E-02	    2.931943E-04	    0.000000E+00	    0.000000E+00	    1.000000E-03	    1.000000E-03	    1.000000E+03	    0.000000E+00	    0.000000E+00	    2.035722E+07	    0.000000E+00	    1.000000E+00	    0.000000E+00	    0.000000E+00	
   -1.213664E-02	    4.481479E-04	    0.000000E+00	    0.000000E+00	    1.000000E-03	    1.000000E-03	    1.000000E+03	    0.000000E+00	    0.000000E+00	    8.714137E+06	    0.000000E+00	    1.000000E+00	    0.000000E+00	    0.000000E+00	
   -1.212408E-02	    6.717413E-04	    0.000000E+00	    0.000000E+00	    1.000000E-03	    1.000000E-03	    1.000000E+03	    0.000000E+00	    0.000000E+00	    3.878976E+06	    0.000000E+00	    1.000000E+00	    0.000000E+00	    0.000000E+00	
   -1.209956E-02	    9.844691E-04	    0.000000E+00	    0.000000E+00	    1.000000E-03	    1.000000E-03	    1.000000E+03	    0.000000E+00	    0.000000E+00	    1.806311E+06	    0.000000E+00	    1.000000E+00	    0.000000E+00	    0.000000E+00	
   -1.205344E-02	    1.407248E-03	    0.000000E+00	    0.000000E+00	    1.000000E-03	    1.000000E-03	    1.000000E+03	    0.000000E+00	    0.000000E+00	    8.842151E+05	    0.000000E+00	    1.000000E+00	    0.000000E+00	    0.000000E+00	
   -1.197068E-02	    1.958259E-03	    0.000000E+00	    0.000000E+00	    1.000000E-03	    1.000000E-03	    1.000000E+03	    0.000000E+00	    0.000000E+00	    4.567643E+05	    0.000000E+00	    1.000000E+00	    0.000000E+00	    0.000000E+00	
   -1.182998E-02	    2.648730E-03	    0.000000E+00	    0.000000E+00	    1.000000E-03	    1.000000E-03	    1.000000E+03	    0.000000E+00	    0.000000E+00	    2.497611E+05	    0.000000E+00	    1.000000E+00	    0.000000E+00	    0.000000E+00	
   -1.160451E-02	    3.478208E-03	    0.000000E+00	    0.000000E+00	    1.000000E-03	    1.000000E-03	    1.000000E+03	    0.000000E+00	    0.000000E+00	    1.449083E+05	    0.000000E+00	    1.000000E+00	    0.000000E+00	    0.000000E+00	
   -1.126508E-02	    4.430482E-03	    0.000000E+00	    0.000000E+00	    1.000000E-03	    1.000000E-03	    1.000000E+03	    0.000000E+00	    0.000000E+00	    8.936003E+04	    0.000000E+00	    1.000000E+00	    0.000000E+00	    0.000000E+00	
   -1.078595E-02	    5.471869E-03	    0.000000E+00	    0.000000E+00	    1.000000E-03	    1.000000E-03	    1.000000E+03	    0.000000E+00	    0.000000E+00	    5.862070E+04	    0.000000E+00	    1.000000E+00	    0.000000E+00	    0.000000E+00	
   -1.015216E-02	    6.553542E-03	    0.000000E+00	    0.000000E+00	    1.000000E-03	    1.000000E-03	    1.000000E+03	    0.000000E+00	    0.000000E+00	    4.089637E+04	    0.000000E+00	    1.000000E+00	    0.000000E+00	    0.000000E+00	
   -9.365676E-03	    7.618437E-03	    0.000000E+00	    0.000000E+00	    1.000000E-03	    1.000000E-03	    1.000000E+03	    0.000000E+00	    0.000000E+00	    3.028710E+04	    0.000000E+00	    1.000000E+00	    0.000000E+00	    0.000000E+00	
   -8.447592E-03	    8.611236E-03	    0.000000E+00	    0.000000E+00	    1.000000E-03	    1.000000E-03	    1.000000E+03	    0.000000E+00	    0.000000E+00	    2.372699E+04	    0.000000E+00	    1.000000E+00	    0.000000E+00	    0.000000E+00	
   -7.434908E-03	    9.488112E-03	    0.000000E+00	    0.000000E+00	    1.000000E-03	    1.000000E-03	    1.000000E+03	    0.000000E+00	    0.000000E+00	    1.956186E+04	    0.000000E+00	    1.000000E+00	    0.000000E+00	    0.000000E+00	
   -6.373132E-03	    1.022286E-02	    0.000000E+00	    0.000000E+00	    1.000000E-03	    1.000000E-03	    1.000000E+03	    0.000000E+00	    0.000000E+00	    1.686616E+04	    0.000000E+00	    1.000000E+00	    0.000000E+00	    0.000000E+00	
   -5.307702E-03	    1.080785E-02	    0.000000E+00	    0.000000E+00	    1.000000E-03	    1.000000E-03	    1.000000E+03	    0.000000E+00	    0.000000E+00	    1.510222E+04	    0.000000E+00	    1.000000E+00	    0.000000E+00	    0.000000E+00	
   -4.277189E-03	    1.125075E-02	    0.000000E+00	    0.000000E+00	    1.000000E-03	    1.000000E-03	    1.000000E+03	    0.000000E+00	    0.000000E+00	    1.394640E+04	    0.000000E+00	    1.000000E+00	    0.000000E+00	    0.000000E+00	
   -3.309761E-03	    1.156901E-02	    0.000000E+00	    0.000000E+00	    1.000000E-03	    1.000000E-03	    1.000000E+03	    0.000000E+00	    0.000000E+00	    1.319692E+04	    0.000000E+00	    1.000000E+00	    0.000000E+00	    0.000000E+00	
   -2.422724E-03	    1.178450E-02	    0.000000E+00	    0.000000E+00	    1.000000E-03	    1.000000E-03	    1.000000E+03	    0.000000E+00	    0.000000E+00	    1.272374E+04	    0.000000E+00	    1.000000E+00	    0.000000E+00	    0.000000E+00	
   -1.624046E-03	    1.191947E-02	    0.000000E+00	    0.000000E+00	    1.000000E-03	    1.000000E-03	    1.000000E+03	    0.000000E+00	    0.000000E+00	    1.244044E+04	    0.000000E+00	    1.000000E+00	    0.000000E+00	    0.000000E+00	
   -9.147101E-04	    1.199402E-02	    0.000000E+00	    0.000000E+00	    1.000000E-03	    1.000000E-03	    1.000000E+03	    0.000000E+00	    0.000000E+00	    1.228807E+04	    0.000000E+00	    1.000000E+00	    0.000000E+00	    0.000000E+00	
   -2.910617E-04	    1.202501E-02	    0.000000E+00	    0.000000E+00	    1.000000E-03	    1.000000E-03	    1.000000E+03	    0.000000E+00	    0.000000E+00	    1.222555E+04	    0.000000E+00	    1.000000E+00	    0.000000E+00	    0.000000E+00	
    2.910617E-04	    1.202501E-02	    0.000000E+00	    0.000000E+00	    1.000000E-03	    1.000000E-03	    1.000000E+03	    0.000000E+00	    0.000000E+00	    1.222555E+04	    0.000000E+00	    1.000000E+00	    0.000000E+00	    0.000000E+00	
    9.147101E-04	    1.199402E-02	    0.000000E+00	    0.000000E+00	    1.000000E-03	    1.000000E-03	    1.000000E+03	    0.000000E+00	    0.000000E+00	    1.228807E+04	    0.000000E+00	    1.000000E+00	    0.000000E+00	    0.000000E+00	
    1.624046E-03	    1.191947E-02	    0.000000E+00	    0.000000E+00	    1.000000E-03	    1.000000E-03	    1.000000E+03	    0.000000E+00	    0.000000E+00	    1.244044E+04	    0.000000E+00	    1.000000E+00	    0.000000E+00	    0.000000E+00	
    2.422724E-03	    1.178450E-02	    0.000000E+00	    0.000000E+00	    1.000000E-03	    1.000000E-03	    1.000000E+03	    0.000000E+00	    0.000000E+00	    1.272374E+04	    0.000000E+00	    1.000000E+00	    0.000000E+00	    0.000000E+00	
    3.309761E-03	    1.156901E-02	    0.000000E+00	    0.000000E+00	    1.000000E-03	    1.000000E-03	    1.000000E+03	    0.000000E+00	    0.000000E+00	    1.319692E+04	    0.000000E+00	    1.000000E+00	    0.000000E+00	    0.000000E+00	
    4.277189E-03	    1.125075E-02	    0.000000E+00	    0.000000E+00	    1.000000E-03	    1.000000E-03	    1.000000E+03	    0.000000E+00	    0.000000E+00	    1.394640E+04	    0.000000E+00	    1.000000E+00	    0.000000E+00	    0.000000E+00	
    5.307702E-03	    1.080785E-02	    0.000000E+00	    0.000000E+00	    1.000000E-03	    1.000000E-03	    1.000000E+03	    0.000000E+00	    0.000000E+00	    1.510222E+04	    0.000000E+00	    1.000000E+00	    0.000000E+00	    0.000000E+00	
    6.373132E-03	    1.022286E-02	    0.000000E+00	    0.000000E+00	    1.000000E-03	    1.000000E-03	    1.000000E+03	    0.000000E+00	    0.000000E+00	    1.686616E+04	    0.000000E+00	    1.000000E+00	    0.000000E+00	    0.000000E+00	
    7.434908E-03	    9.488112E-03	    0.000000E+00	    0.000000E+00	    1.000000E-03	    1.000000E-03	    1.000000E+03	    0.000000E+00	    0.000000E+00	    1.956186E+04	    0.000000E+00	    1.000000E+00	    0.000000E+00	    0.000000E+00	
    8.447592E-03	    8.611236E-03	    0.000000E+00	    0.000000E+00	    1.000000E-03	    1.000000E-03	    1.000000E+03	    0.000000E+00	    0.000000E+00	    2.372699E+04	    0.000000E+00	    1.000000E+00	    0.000000E+00	    0.000000E+00	
    9.365676E-03	    7.618437E-03	    0.000000E+00	    0.000000E+00	    1.000000E-03	    1.000000E-03	    1.000000E+03	    0.000000E+00	    0.000000E+00	    3.028710E+04	    0.000000E+00	    1.000000E+00	    0.000000E+00	    0.000000E+00	
    1.015216E-02	    6.553542E-03	    0.000000E+00	    0.000000E+00	    1.000000E-03	    1.000000E-03	    1.000000E+03	    0.000000E+00	    0.000000E+00	    4.089637E+04	    0.000000E+00	    1.000000E+00	    0.000000E+00	    0.000000E+00	
    1.078595E-02	    5.471869E-03	    0.000000E+00	    0.000000E+00	    1.000000E-03	    1.000000E-03	    1.000000E+03	    0.000000E+00	    0.000000E+00	    5.862070E+04	    0.000000E+00	    1.000000E+00	    0.000000E+00	    0.000000E+00	
    1.126508E-02	    4.430482E-03	    0.000000E+00	    0.000000E+00	    1.000000E-03	    1.000000E-03	    1.000000E+03	    0.000000E+00	    0.000000E+00	    8.936003E+04	    0.000000E+00	    1.000000E+00	    0.000000E+00	    0.000000E+00	
    1.160451E-02	    3.478208E-03	    0.000000E+00	    0.000000E+00	    1.000000E-03	    1.000000E-03	    1.000000E+03	    0.000000E+00	    0.000000E+00	    1.449083E+05	    0.000000E+00	    1.000000E+00	    0.000000E+00	    0.000000E+00	
    1.182998E-02	    2.648730E-03	    0.000000E+00	    0.000000E+00	    1.000000E-03	    1.000000E-03	    1.000000E+03	    0.000000E+00	    0.000000E+00	    2.497611E+05	    0.000000E+00	    1.000000E+00	    0.000000E+00	    0.000000E+00	
    1.197068E-02	    1.958259E-03	    0.000000E+00	    0.000000E+00	    1.000000E-03	    1.000000E-03	    1.000000E+03	    0.000000E+00	    0.000000E+00	    4.567643E+05	    0.000000E+00	    1.000000E+00	    0.000000E+00	    0.000000E+00	
    1.205344E-02	    1.407248E-03	    0.000000E+00	    0.000000E+00	    1.000000E-03	    1.000000E-03	    1.000000E+03	    0.000000E+00	    0.000000E+00	    8.842151E+05	    0.000000E+00	    1.000000E+00	    0.000000E+00	    0.000000E+00	
    1.209956E-02	    9.844691E-04	    0.000000E+00	    0.000000E+00	    1.000000E-03	    1.000000E-03	    1.000000E+03	    0.000000E+00	    0.000000E+00	    1.806311E+06	    0.000000E+00	    1.000000E+00	    0.000000E+00	    0.000000E+00	
    1.212408E-02	    6.717413E-04	    0.000000E+00	    0.000000E+00	    1.000000E-03	    1.000000E-03	    1.000000E+03	    0.000000E+00	    0.000000E+00	    3.878976E+06	    0.000000E+00	    1.000000E+00	    0.000000E+00	    0.000000E+00	
    1.213664E-02	    4.481479E-04	    0.000000E+00	    0.000000E+00	    1.000000E-03	    1.000000E-03	    1.000000E+03	    0.000000E+00	    0.000000E+00	    8.714137E+06	    0.000000E+00	    1.000000E+00	    0.000000E+00	    0.000000E+00	
    1.214292E-02	    2.931943E-04	    0.000000E+00	    0.000000E+00	    1.000000E-03	    1.000000E-03	    1.000000E+03	    0.000000E+00	    0.000000E+00	    2.035722E+07	    0.000000E+00	    1.000000E+00	    0.000000E+00	    0.000000E+00	
    1.214604E-02	    1.887791E-04	    0.000000E+00	    0.000000E+00	    1.000000E-03	    1.000000E-03	    1.000000E+03	    0.000000E+00	    0.000000E+00	    4.910171E+07	    0.000000E+00	    1.000000E+00	    0.000000E+00	    0.000000E+00	
    1.214760E-02	    1.201162E-04	    0.000000E+00	    0.000000E+00	    1.000000E-03	    1.000000E-03	    1.000000E+03	    0.000000E+00	    0.000000E+00	    1.212788E+08	    0.000000E+00	    1.000000E+00	    0.000000E+00	    0.000000E+00	
    1.214840E-02	    7.587059E-05	    0.000000E+00	    0.000000E+00	    1.000000E-03	    1.000000E-03	    1.000000E+03	    0.000000E+00	    0.000000E+00	    3.039697E+08	    0.000000E+00	    1.000000E+00	    0.000000E+00	    0.000000E+00	
    1.214864E-02	    6.022430E-05	    0.000000E+00	    0.000000E+00	    1.000000E-03	    1.000000E-03	    1.000000E+03	    0.000000E+00	    0.000000E+00	    0.000000E+00	    0.000000E+00	    1.000000E+00	    0.000000E+00	    0.000000E+00	
   -1.214823E-02	    6.021683E-05	    0.000000E+00	    0.000000E+00	    1.000000E-03	    1.000000E-03	    1.000000E+03	    0.000000E+00	    0.000000E+00	    0.000000E+00	    0.000000E+00	    1.000000E+00	    0.000000E+00	    0.000000E+00	
   -1.214788E-02	    7.586052E-05	    1.439223E-04	   -1.000000E+00	    1.000000E-03	    1.000000E-03	    1.000000E+03	    1.036836E-14	    3.151667E-09	    3.039697E+08	    7.874035E+04	    1.000000E+00	    5.130147E-07	    4.101241E+01	
   -1.214679E-02	    1.200973E-04	    4.607238E-04	   -1.000000E+00	    1.000000E-03	    1.000000E-03	    1.000000E+03	    5.753129E-14	    6.977328E-09	    1.212788E+08	    3.217170E+05	    1.000000E+00	    8.121804E-07	    7.793940E+01	
   -1.214476E-02	    1.887422E-04	    8.725803E-04	   -1.000000E+00	    1.000000E-03	    1.000000E-03	    1.000000E+03	    5.133579E-13	    2.520675E-08	    4.910171E+07	    4.671530E+05	    1.000000E+00	    1.276429E-06	    1.135919E+02	
   -1.214094E-02	    2.931200E-04	    1.454752E-03	   -1.000000E+00	    1.000000E-03	    1.000000E-03	    1.000000E+03	    3.491195E-12	    7.107103E-08	    2.035722E+07	    5.382470E+05	    1.000000E+00	    1.982375E-06	    1.318380E+02	
   -1.213361E-02	    4.479957E-04	    2.289383E-03	   -1.000000E+00	    1.000000E-03	    1.000000E-03	    1.000000E+03	    2.067120E-11	    1.801317E-07	    8.714137E+06	    5.704898E+05	    1.000000E+00	    3.029932E-06	    1.413920E+02	
   -1.211955E-02	    6.714295E-04	    3.456571E-03	   -1.000000E+00	    1.000000E-03	    1.000000E-03	    1.000000E+03	    1.094824E-10	    4.246795E-07	    3.878976E+06	    5.786896E+05	    1.000000E+00	    4.541366E-06	    1.459083E+02	
   -1.209293E-02	    9.838410E-04	    5.050584E-03	   -1.000000E+00	    1.000000E-03	    1.000000E-03	    1.000000E+03	    5.263938E-10	    9.508310E-07	    1.806311E+06	    5.750405E+05	    1.000000E+00	    6.655010E-06	    1.485500E+02	
   -1.204401E-02	    1.406019E-03	    7.173202E-03	   -1.000000E+00	    1.000001E-03	    1.000000E-03	    1.000000E+03	    2.312895E-09	    2.045097E-06	    8.842151E+05	    5.674273E+05	    1.000000E+00	    9.511874E-06	    1.514658E+02	
   -1.195765E-02	    1.955950E-03	    9.897539E-03	   -1.000000E+00	    1.000002E-03	    1.000000E-03	    1.000000E+03	    9.240392E-09	    4.220682E-06	    4.567643E+05	    5.575337E+05	    1.000000E+00	    1.323424E-05	    1.550947E+02	
   -1.181256E-02	    2.644593E-03	    1.325930E-02	   -1.000000E+00	    1.000007E-03	    1.000000E-03	    1.000000E+03	    3.334451E-08	    8.328162E-06	    2.497611E+05	    5.464421E+05	    1.000000E+00	    1.789713E-05	    1.595898E+02	
   -1.158209E-02	    3.471175E-03	    1.725699E-02	   -1.000000E+00	    1.000024E-03	    1.000000E-03	    1.000000E+03	    1.081574E-07	    1.567291E-05	    1.449083E+05	    5.360651E+05	    1.000000E+00	    2.349639E-05	    1.653157E+02	
   -1.123737E-02	    4.419185E-03	    2.180876E-02	   -1.000000E+00	    1.000069E-03	    1.000000E-03	    1.000000E+03	    3.132540E-07	    2.799239E-05	    8.936003E+04	    5.264117E+05	    1.000000E+00	    2.992139E-05	    1.721726E+02	
   -1.075321E-02	    5.454763E-03	    2.673008E-02	   -1.000000E+00	    1.000176E-03	    1.000000E-03	    1.000000E+03	    7.994457E-07	    4.686407E-05	    5.862070E+04	    5.160263E+05	    1.000000E+00	    3.694375E-05	    1.791080E+02	
   -1.011527E-02	    6.529136E-03	    3.182527E-02	   -1.000000E+00	    1.000396E-03	    1.000000E-03	    1.000000E+03	    1.800886E-06	    7.364967E-05	    4.089637E+04	    5.054817E+05	    1.000000E+00	    4.423348E-05	    1.864799E+02	
   -9.326135E-03	    7.585587E-03	    3.691185E-02	   -1.000000E+00	    1.000789E-03	    1.000000E-03	    1.000000E+03	    3.588169E-06	    1.086752E-04	    3.028710E+04	    4.959000E+05	    1.000000E+00	    5.140587E-05	    1.945281E+02	
   -8.407302E-03	    8.569391E-03	    4.165470E-02	   -1.000000E+00	    1.001384E-03	    1.000000E-03	    1.000000E+03	    6.290043E-06	    1.492438E-04	    2.372699E+04	    4.846605E+05	    1.000000E+00	    5.808887E-05	    2.014666E+02	
   -7.395856E-03	    9.437422E-03	    4.572005E-02	   -1.000000E+00	    1.002141E-03	    1.000000E-03	    1.000000E+03	    9.729838E-06	    1.903337E-04	    1.956186E+04	    4.705484E+05	    1.000000E+00	    6.398848E-05	    2.057964E+02	
   -6.337080E-03	    1.016411E-02	    4.917063E-02	   -1.000000E+00	    1.003016E-03	    1.000000E-03	    1.000000E+03	    1.371044E-05	    2.312425E-04	    1.686616E+04	    4.586174E+05	    1.000000E+00	    6.892962E-05	    2.102348E+02	
   -5.275969E-03	    1.074227E-02	    5.194860E-02	   -1.000000E+00	    1.003911E-03	    1.000000E-03	    1.000000E+03	    1.777556E-05	    2.684505E-04	    1.510222E+04	    4.490104E+05	    1.000000E+00	    7.286231E-05	    2.141790E+02	
   -4.250575E-03	    1.117974E-02	    5.407242E-02	   -1.000000E+00	    1.004725E-03	    1.000000E-03	    1.000000E+03	    2.147517E-05	    2.995014E-04	    1.394640E+04	    4.417292E+05	    1.000000E+00	    7.583887E-05	    2.173544E+02	
   -3.288589E-03	    1.149396E-02	    5.561020E-02	   -1.000000E+00	    1.005391E-03	    1.000000E-03	    1.000000E+03	    2.450397E-05	    3.233770E-04	    1.319692E+04	    4.365170E+05	    1.000000E+00	    7.797729E-05	    2.197099E+02	
   -2.406939E-03	    1.170666E-02	    5.665692E-02	   -1.000000E+00	    1.005884E-03	    1.000000E-03	    1.000000E+03	    2.674411E-05	    3.402850E-04	    1.272374E+04	    4.330024E+05	    1.000000E+00	    7.942503E-05	    2.213280E+02	
   -1.613344E-03	    1.183985E-02	    5.731440E-02	   -1.000000E+00	    1.006210E-03	    1.000000E-03	    1.000000E+03	    2.822841E-05	    3.511737E-04	    1.244044E+04	    4.308047E+05	    1.000000E+00	    8.033169E-05	    2.223452E+02	
   -9.086451E-04	    1.191341E-02	    5.767766E-02	   -1.000000E+00	    1.006397E-03	    1.000000E-03	    1.000000E+03	    2.907525E-05	    3.572785E-04	    1.228807E+04	    4.295855E+05	    1.000000E+00	    8.083244E-05	    2.229033E+02	
   -2.891269E-04	    1.194400E-02	    5.782760E-02	   -1.000000E+00	    1.006475E-03	    1.000000E-03	    1.000000E+03	    2.943178E-05	    3.598197E-04	    1.222555E+04	    4.290635E+05	    1.000000E+00	    8.104063E-05	    2.231253E+02	
    2.891269E-04	    1.194400E-02	    5.782760E-02	   -1.000000E+00	    1.006475E-03	    1.000000E-03	    1.000000E+03	    2.943178E-05	    3.598197E-04	    1.222555E+04	    4.290635E+05	    1.000000E+00	    8.104063E-05	    2.231253E+02	
    9.086451E-04	    1.191341E-02	    5.767766E-02	   -1.000000E+00	    1.006397E-03	    1.000000E-03	    1.000000E+03	    2.907525E-05	    3.572785E-04	    1.228807E+04	    4.295855E+05	    1.000000E+00	    8.083244E-05	    2.229033E+02	
    1.613344E-03	    1.183985E-02	    5.731440E-02	   -1.000000E+00	    1.006210E-03	    1.000000E-03	    1.000000E+03	    2.822841E-05	    3.511737E-04	    1.244044E+04	    4.308047E+05	    1.000000E+00	    8.033169E-05	    2.223452E+02	
    2.406939E-03	    1.170666E-02	    5.665692E-02	   -1.000000E+00	    1.005884E-03	    1.000000E-03	    1.000000E+03	    2.674411E-05	    3.402850E-04	    1.272374E+04	    4.330024E+05	    1.000000E+00	    7.942503E-05	    2.213280E+02	
    3.288589E-03	    1.149396E-02	    5.561020E-02	   -1.000000E+00	    1.005391E-03	    1.000000E-03	    1.000000E+03	    2.450397E-05	    3.233770E-04	    1.319692E+04	    4.365170E+05	    1.000000E+00	    7.797729E-05	    2.197099E+02	
    4.250575E-03	    1.117974E-02	    5.407242E-02	   -1.000000E+00	    1.004725E-03	    1.000000E-03	    1.000000E+03	    2.147517E-05	    2.995014E-04	    1.394640E+04	    4.417292E+05	    1.000000E+00	    7.583887E-05	    2.173544E+02	
    5.275969E-03	    1.074227E-02	    5.194860E-02	   -1.000000E+00	    1.003911E-03	    1.000000E-03	    1.000000E+03	    1.777556E-05	    2.684505E-04	    1.510222E+04	    4.490104E+05	    1.000000E+00	    7.286231E-05	    2.141790E+02	
    6.337080E-03	    1.016411E-02	    4.917063E-02	   -1.000000E+00	    1.003016E-03	    1.000000E-03	    1.000000E+03	    1.371044E-05	    2.312425E-04	    1.686616E+04	    4.586174E+05	    1.000000E+00	    6.892962E-05	    2.102348E+02	
    7.395856E-03	    9.437422E-03	    4.572005E-02	   -1.000000E+00	    1.002141E-03	    1.000000E-03	    1.000000E+03	    9.729838E-06	    1.903337E-04	    1.956186E+04	    4.705484E+05	    1.000000E+00	    6.398848E-05	    2.057964E+02	
    8.407302E-03	    8.569391E-03	    4.165470E-02	   -1.000000E+00	    1.001384E-03	    1.000000E-03	    1.000000E+03	    6.290043E-06	    1.492438E-04	    2.372699E+04	    4.846605E+05	    1.000000E+00	    5.808887E-05	    2.014666E+02	
    9.326135E-03	    7.585587E-03	    3.691185E-02	   -1.000000E+00	    1.000789E-03	    1.000000E-03	    1.000000E+03	    3.588169E-06	    1.086752E-04	    3.028710E+04	    4.959000E+05	    1.000000E+00	    5.140587E-05	    1.945281E+02	
    1.011527E-02	    6.529136E-03	    3.182527E-02	   -1.000000E+00	    1.000396E-03	    1.000000E-03	    1.000000E+03	    1.800886E-06	    7.364967E-05	    4.089637E+04	    5.054817E+05	    1.000000E+00	    4.423348E-05	    1.864799E+02	
    1.075321E-02	    5.454763E-03	    2.673008E-02	   -1.000000E+00	    1.000176E-03	    1.000000E-03	    1.000000E+03	    7.994457E-07	    4.686407E-05	    5.862070E+04	    5.160263E+05	    1.000000E+00	    3.694375E-05	    1.791080E+02	
    1.123737E-02	    4.419185E-03	    2.180876E-02	   -1.000000E+00	    1.000069E-03	    1.000000E-03	    1.000000E+03	    3.132540E-07	    2.799239E-05	    8.936003E+04	    5.264117E+05	    1.000000E+00	    2.992139E-05	    1.721726E+02	
    1.158209E-02	    3.471175E-03	    1.725699E-02	   -1.000000E+00	    1.000024E-03	    1.000000E-03	    1.000000E+03	    1.081574E-07	    1.567291E-05	    1.449083E+05	    5.360651E+05	    1.000000E+00	    2.349639E-05	    1.653157E+02	
    1.181256E-02	    2.644593E-03	    1.325930E-02	   -1.000000E+00	    1.000007E-03	    1.000000E-03	    1.000000E+03	    3.334451E-08	    8.328162E-06	    2.497611E+05	    5.464421E+05	    1.000000E+00	    1.789713E-05	    1.595898E+02	
    1.195765E-02	    1.955950E-03	    9.897539E-03	   -1.000000E+00	    1.000002E-03	    1.000000E-03	    1.000000E+03	    9.240392E-09	    4.220682E-06	    4.567643E+05	    5.575337E+05	    1.000000E+00	    1.323424E-05	    1.550947E+02	
    1.204401E-02	    1.406019E-03	    7.173202E-03	   -1.000000E+00	    1.000001E-03	    1.000000E-03	    1.000000E+03	    2.312895E-09	    2.045097E-06	    8.842151E+05	    5.674273E+05	    1.000000E+00	    9.511874E-06	    1.514658E+02	
    1.209293E-02	    9.838410E-04	    5.050584E-03	   -1.000000E+00	    1.000000E-03	    1.000000E-03	    1.000000E+03	    5.263938E-10	    9.508310E-07	    1.806311E+06	    5.750405E+05	    1.000000E+00	    6.655010E-06	    1.485500E+02	
    1.211955E-02	    6.714295E-04	    3.456571E-03	   -1.000000E+00	    1.000000E-03	    1.000000E-03	    1.000000E+03	    1.094824E-10	    4.246795E-07	    3.878976E+06	    5.786896E+05	    1.000000E+00	    4.541366E-06	    1.459083E+02	
    1.213361E-02	    4.479957E-04	    2.289383E-03	   -1.000000E+00	    1.000000E-03	    1.000000E-03	    1.000000E+03	    2.067120E-11	    1.801317E-07	    8.714137E+06	    5.704898E+05	    1.000000E+00	    3.029932E-06	    1.413920E+02	
    1.214094E-02	    2.931200E-04	    1.454752E-03	   -1.000000E+00	    1.000000E-03	    1.000000E-03	    1.000000E+03	    3.491195E-12	    7.107103E-08	    2.035722E+07	    5.382470E+05	    1.000000E+00	    1.982375E-06	    1.318380E+02	
    1.214476E-02	    1.887422E-04	    8.725803E-04	   -1.000000E+00	    1.000000E-03	    1.000000E-03	    1.000000E+03	    5.133579E-13	    2.520675E-08	    4.910171E+07	    4.671530E+05	    1.000000E+00	    1.276429E-06	    1.135919E+02	
    1.214679E-02	    1.200973E-04	    4.607238E-04	   -1.000000E+00	    1.000000E-03	    1.000000E-03	    1.000000E+03	    5.753129E-14	    6.977328E-09	    1.212788E+08	    3.217170E+05	    1.000000E+00	    8.121804E-07	    7.793940E+01	
    1.214788E-02	    7.586052E-05	    1.439223E-04	   -1.000000E+00	    1.000000E-03	    1.000000E-03	    1.000000E+03	    1.036836E-14	    3.151667E-09	    3.039697E+08	    7.874035E+04	    1.000000E+00	    5.130147E-07	    4.101241E+01	
    1.214823E-02	    6.021683E-05	    0.000000E+00	    0.000000E+00	    1.000000E-03	    1.000000E-03	    1.000000E+03	    0.000000E+00	    0.000000E+00	    3.267914E+05	    0.000000E+00	    1.000000E+00	    0.000000E+00	    0.000000E+00	
   -1.214729E-02	    6.018900E-05	    0.000000E+00	    0.000000E+00	    1.000000E-03	    1.000000E-03	    1.000000E+03	    0.000000E+00	    0.000000E+00	    3.267914E+05	    0.000000E+00	    1.000000E+00	    0.000000E+00	    0.000000E+00	
   -1.214670E-02	    7.582392E-05	    4.768356E-04	   -1.000000E+00	    1.000000E-03	    1.000000E-03	    1.000000E+03	    1.781541E-10	    5.821923E-08	    3.267914E+05	    7.938483E+04	    1.000000E+00	    1.700203E-06	    6.278550E-01	
   -1.214491E-02	    1.200325E-04	    1.526541E-03	   -1.000000E+00	    1.000000E-03	    1.000000E-03	    1.000000E+03	    8.641480E-14	    1.524378E-09	    1.764025E+07	    3.218403E+05	    1.000000E+00	    2.691603E-06	    2.781177E-08	
   -1.214181E-02	    1.886237E-04	    2.890958E-03	   -1.000000E+00	    1.000000E-03	    1.000000E-03	    1.000000E+03	    1.202556E-12	    8.591849E-09	    7.144658E+06	    4.670081E+05	    1.000000E+00	    4.229957E-06	    5.616033E-07	
   -1.213636E-02	    2.928967E-04	    4.819103E-03	   -1.000000E+00	    1.000000E-03	    1.000000E-03	    1.000000E+03	    1.398731E-11	    4.143820E-08	    2.962557E+06	    5.378976E+05	    1.000000E+00	    6.568948E-06	    7.523739E-06	
   -1.212662E-02	    4.475651E-04	    7.582334E-03	   -1.000000E+00	    1.000000E-03	    1.000000E-03	    1.000000E+03	    1.378646E-10	    1.748715E-07	    1.268430E+06	    5.699120E+05	    1.000000E+00	    1.003921E-05	    7.857067E-05	
   -1.210908E-02	    6.705914E-04	    1.144430E-02	   -1.000000E+00	    1.000000E-03	    1.000000E-03	    1.000000E+03	    1.148341E-09	    6.485825E-07	    5.647995E+05	    5.777957E+05	    1.000000E+00	    1.504495E-05	    6.635066E-04	
   -1.207763E-02	    9.822180E-04	    1.671410E-02	   -1.000000E+00	    1.000002E-03	    1.000000E-03	    1.000000E+03	    8.301422E-09	    2.184288E-06	    2.631222E+05	    5.737021E+05	    1.000000E+00	    2.204275E-05	    4.762543E-03	
   -1.202224E-02	    1.402938E-03	    2.372338E-02	   -1.000000E+00	    1.000012E-03	    1.000000E-03	    1.000000E+03	    5.248373E-08	    6.763844E-06	    1.288751E+05	    5.654255E+05	    1.000000E+00	    3.149672E-05	    2.967564E-02	
   -1.192760E-02	    1.950285E-03	    3.270527E-02	   -1.000000E+00	    1.000063E-03	    1.000000E-03	    1.000000E+03	    2.870897E-07	    1.912529E-05	    6.661782E+04	    5.542924E+05	    1.000000E+00	    4.380714E-05	    1.591317E-01	
   -1.177247E-02	    2.634602E-03	    4.376371E-02	   -1.000000E+00	    1.000297E-03	    1.000000E-03	    1.000000E+03	    1.349355E-06	    4.918027E-05	    3.644724E+04	    5.400924E+05	    1.000000E+00	    5.921575E-05	    7.287765E-01	
   -1.153055E-02	    3.454397E-03	    5.686876E-02	   -1.000000E+00	    1.001198E-03	    1.000000E-03	    1.000000E+03	    5.445352E-06	    1.151418E-04	    2.114497E+04	    5.210779E+05	    1.000000E+00	    7.770067E-05	    2.837452E+00	
   -1.117378E-02	    4.392487E-03	    7.169621E-02	   -1.000000E+00	    1.004145E-03	    1.000000E-03	    1.000000E+03	    1.883956E-05	    2.453298E-04	    1.302205E+04	    4.915491E+05	    1.000000E+00	    9.888753E-05	    9.260570E+00	
   -1.067819E-02	    5.414629E-03	    8.751819E-02	   -1.000000E+00	    1.012061E-03	    1.000000E-03	    1.000000E+03	    5.482258E-05	    4.673605E-04	    8.524963E+03	    4.495849E+05	    1.000000E+00	    1.220149E-04	    2.464741E+01	
   -1.003092E-02	    6.472204E-03	    1.034712E-01	   -1.000000E+00	    1.029620E-03	    1.000000E-03	    1.000000E+03	    1.346368E-04	    8.004257E-04	    5.945074E+03	    4.024027E+05	    1.000000E+00	    1.459906E-04	    5.417821E+01	
   -9.235913E-03	    7.509312E-03	    1.186888E-01	   -1.000000E+00	    1.061234E-03	    1.000000E-03	    1.000000E+03	    2.783350E-04	    1.230718E-03	    4.421716E+03	    3.584855E+05	    1.000000E+00	    1.695485E-04	    9.977906E+01	
   -8.315535E-03	    8.472593E-03	    1.319880E-01	   -1.000000E+00	    1.106385E-03	    1.000000E-03	    1.000000E+03	    4.835698E-04	    1.692702E-03	    3.500429E+03	    3.216367E+05	    1.000000E+00	    1.914705E-04	    1.555338E+02	
   -7.307050E-03	    9.320514E-03	    1.425444E-01	   -1.000000E+00	    1.158479E-03	    1.000000E-03	    1.000000E+03	    7.203569E-04	    2.110829E-03	    2.930255E+03	    2.930328E+05	    1.000000E+00	    2.108000E-04	    2.110882E+02	
   -6.255204E-03	    1.002892E-02	    1.508281E-01	   -1.000000E+00	    1.213325E-03	    1.000000E-03	    1.000000E+03	    9.696589E-04	    2.490351E-03	    2.568275E+03	    2.705243E+05	    1.000000E+00	    2.269729E-04	    2.623163E+02	
   -5.203978E-03	    1.059161E-02	    1.570353E-01	   -1.000000E+00	    1.264476E-03	    1.000000E-03	    1.000000E+03	    1.202165E-03	    2.806969E-03	    2.334928E+03	    2.534677E+05	    1.000000E+00	    2.398345E-04	    3.047100E+02	