Title="Fields"
Variables="X""Y""Velocity""Phi""Effective Viscosity""Dynamic Viscosity""Density""Eddy Viscosity""K""Omega""S""F1SST""distance""GEN"
Zone I=82 J=82 F=POINT
   -1.214864E-02	    6.022430E-05	    0.000000E+00	   -1.000000E+00	    1.000000E-03	    1.000000E-03	    1.000000E+03	    0.000000E+00	    0.000000E+00	    1.029829E+09	    0.000000E+00	    1.000000E+00	    0.000000E+00	    0.000000E+00	
   -1.214850E-02	    6.958711E-05	    0.000000E+00	   -1.000000E+00	    1.000000E-03	    1.000000E-03	    1.000000E+03	    0.000000E+00	    0.000000E+00	    1.029829E+09	    0.000000E+00	    1.000000E+00	    0.000000E+00	    0.000000E+00	
   -1.214811E-02	    9.284917E-05	    0.000000E+00	   -1.000000E+00	    1.000000E-03	    1.000000E-03	    1.000000E+03	    0.000000E+00	    0.000000E+00	    5.784556E+08	    0.000000E+00	    1.000000E+00	    0.000000E+00	    0.000000E+00	
   -1.214753E-02	    1.236630E-04	    0.000000E+00	   -1.000000E+00	    1.000000E-03	    1.000000E-03	    1.000000E+03	    0.000000E+00	    0.000000E+00	    3.261000E+08	    0.000000E+00	    1.000000E+00	    0.000000E+00	    0.000000E+00	
   -1.214664E-02	    1.642119E-04	    0.000000E+00	   -1.000000E+00	    1.000000E-03	    1.000000E-03	    1.000000E+03	    0.000000E+00	    0.000000E+00	    1.849385E+08	    0.000000E+00	    1.000000E+00	    0.000000E+00	    0.000000E+00	
   -1.214528E-02	    2.171613E-04	    0.000000E+00	   -1.000000E+00	    1.000000E-03	    1.000000E-03	    1.000000E+03	    0.000000E+00	    0.000000E+00	    1.057497E+08	    0.000000E+00	    1.000000E+00	    0.000000E+00	    0.000000E+00	
   -1.214317E-02	    2.856999E-04	    0.000000E+00	   -1.000000E+00	    1.000000E-03	    1.000000E-03	    1.000000E+03	    0.000000E+00	    0.000000E+00	    6.109890E+07	    0.000000E+00	    1.000000E+00	    0.000000E+00	    0.000000E+00	
   -1.213991E-02	    3.735571E-04	    0.000000E+00	   -1.000000E+00	    1.000000E-03	    1.000000E-03	    1.000000E+03	    0.000000E+00	    0.000000E+00	    3.573981E+07	    0.000000E+00	    1.000000E+00	    0.000000E+00	    0.000000E+00	
   -1.213485E-02	    4.849849E-04	    0.000000E+00	   -1.000000E+00	    1.000000E-03	    1.000000E-03	    1.000000E+03	    0.000000E+00	    0.000000E+00	    2.120439E+07	    0.000000E+00	    1.000000E+00	    0.000000E+00	    0.000000E+00	
   -1.212706E-02	    6.246949E-04	    0.000000E+00	   -1.000000E+00	    1.000000E-03	    1.000000E-03	    1.000000E+03	    0.000000E+00	    0.000000E+00	    1.278104E+07	    0.000000E+00	    1.000000E+00	    0.000000E+00	    0.000000E+00	
   -1.211518E-02	    7.977369E-04	    0.000000E+00	   -1.000000E+00	    1.000000E-03	    1.000000E-03	    1.000000E+03	    0.000000E+00	    0.000000E+00	    7.838043E+06	    0.000000E+00	    1.000000E+00	    0.000000E+00	    0.000000E+00	
   -1.209726E-02	    1.009312E-03	    0.000000E+00	   -1.000000E+00	    1.000000E-03	    1.000000E-03	    1.000000E+03	    0.000000E+00	    0.000000E+00	    4.896735E+06	    0.000000E+00	    1.000000E+00	    0.000000E+00	    0.000000E+00	
   -1.207069E-02	    1.264512E-03	    0.000000E+00	   -1.000000E+00	    1.000000E-03	    1.000000E-03	    1.000000E+03	    0.000000E+00	    0.000000E+00	    3.119952E+06	    0.000000E+00	    1.000000E+00	    0.000000E+00	    0.000000E+00	
   -1.203196E-02	    1.567989E-03	    0.000000E+00	   -1.000000E+00	    1.000000E-03	    1.000000E-03	    1.000000E+03	    0.000000E+00	    0.000000E+00	    2.029324E+06	    0.000000E+00	    1.000000E+00	    0.000000E+00	    0.000000E+00	
   -1.197665E-02	    1.923554E-03	    0.000000E+00	   -1.000000E+00	    1.000000E-03	    1.000000E-03	    1.000000E+03	    0.000000E+00	    0.000000E+00	    1.348588E+06	    0.000000E+00	    1.000000E+00	    0.000000E+00	    0.000000E+00	
   -1.189934E-02	    2.333731E-03	    0.000000E+00	   -1.000000E+00	    1.000000E-03	    1.000000E-03	    1.000000E+03	    0.000000E+00	    0.000000E+00	    9.163158E+05	    0.000000E+00	    1.000000E+00	    0.000000E+00	    0.000000E+00	
   -1.179371E-02	    2.799291E-03	    0.000000E+00	   -1.000000E+00	    1.000000E-03	    1.000000E-03	    1.000000E+03	    0.000000E+00	    0.000000E+00	    6.369678E+05	    0.000000E+00	    1.000000E+00	    0.000000E+00	    0.000000E+00	
   -1.165276E-02	    3.318811E-03	    0.000000E+00	   -1.000000E+00	    1.000000E-03	    1.000000E-03	    1.000000E+03	    0.000000E+00	    0.000000E+00	    4.532346E+05	    0.000000E+00	    1.000000E+00	    0.000000E+00	    0.000000E+00	
   -1.146925E-02	    3.888331E-03	    0.000000E+00	   -1.000000E+00	    1.000000E-03	    1.000000E-03	    1.000000E+03	    0.000000E+00	    0.000000E+00	    3.302506E+05	    0.000000E+00	    1.000000E+00	    0.000000E+00	    0.000000E+00	
   -1.123626E-02	    4.501167E-03	    0.000000E+00	   -1.000000E+00	    1.000000E-03	    1.000000E-03	    1.000000E+03	    0.000000E+00	    0.000000E+00	    2.464951E+05	    0.000000E+00	    1.000000E+00	    0.000000E+00	    0.000000E+00	
   -1.094784E-02	    5.147962E-03	    0.000000E+00	   -1.000000E+00	    1.000000E-03	    1.000000E-03	    1.000000E+03	    0.000000E+00	    0.000000E+00	    1.884871E+05	    0.000000E+00	    1.000000E+00	    0.000000E+00	    0.000000E+00	
   -1.059983E-02	    5.817025E-03	    0.000000E+00	   -1.000000E+00	    1.000000E-03	    1.000000E-03	    1.000000E+03	    0.000000E+00	    0.000000E+00	    1.476551E+05	    0.000000E+00	    1.000000E+00	    0.000000E+00	    0.000000E+00	
   -1.019044E-02	    6.494952E-03	    0.000000E+00	   -1.000000E+00	    1.000000E-03	    1.000000E-03	    1.000000E+03	    0.000000E+00	    0.000000E+00	    1.184673E+05	    0.000000E+00	    1.000000E+00	    0.000000E+00	    0.000000E+00	
   -9.720744E-03	    7.167508E-03	    0.000000E+00	   -1.000000E+00	    1.000000E-03	    1.000000E-03	    1.000000E+03	    0.000000E+00	    0.000000E+00	    9.730055E+04	    0.000000E+00	    1.000000E+00	    0.000000E+00	    0.000000E+00	
   -9.194834E-03	    7.820637E-03	    0.000000E+00	   -1.000000E+00	    1.000000E-03	    1.000000E-03	    1.000000E+03	    0.000000E+00	    0.000000E+00	    8.174616E+04	    0.000000E+00	    1.000000E+00	    0.000000E+00	    0.000000E+00	
   -8.619619E-03	    8.441483E-03	    0.000000E+00	   -1.000000E+00	    1.000000E-03	    1.000000E-03	    1.000000E+03	    0.000000E+00	    0.000000E+00	    7.017966E+04	    0.000000E+00	    1.000000E+00	    0.000000E+00	    0.000000E+00	
   -8.004317E-03	    9.019255E-03	    0.000000E+00	   -1.000000E+00	    1.000000E-03	    1.000000E-03	    1.000000E+03	    0.000000E+00	    0.000000E+00	    6.148938E+04	    0.000000E+00	    1.000000E+00	    0.000000E+00	    0.000000E+00	
   -7.359702E-03	    9.545831E-03	    0.000000E+00	   -1.000000E+00	    1.000000E-03	    1.000000E-03	    1.000000E+03	    0.000000E+00	    0.000000E+00	    5.490362E+04	    0.000000E+00	    1.000000E+00	    0.000000E+00	    0.000000E+00	
   -6.697247E-03	    1.001602E-02	    0.000000E+00	   -1.000000E+00	    1.000000E-03	    1.000000E-03	    1.000000E+03	    0.000000E+00	    0.000000E+00	    4.987898E+04	    0.000000E+00	    1.000000E+00	    0.000000E+00	    0.000000E+00	
   -6.028288E-03	    1.042754E-02	    0.000000E+00	   -1.000000E+00	    1.000000E-03	    1.000000E-03	    1.000000E+03	    0.000000E+00	    0.000000E+00	    4.602739E+04	    0.000000E+00	    1.000000E+00	    0.000000E+00	    0.000000E+00	
   -5.363328E-03	    1.078067E-02	    0.000000E+00	   -1.000000E+00	    1.000000E-03	    1.000000E-03	    1.000000E+03	    0.000000E+00	    0.000000E+00	    4.306773E+04	    0.000000E+00	    1.000000E+00	    0.000000E+00	    0.000000E+00	
   -4.711536E-03	    1.107778E-02	    0.000000E+00	   -1.000000E+00	    1.000000E-03	    1.000000E-03	    1.000000E+03	    0.000000E+00	    0.000000E+00	    4.079357E+04	    0.000000E+00	    1.000000E+00	    0.000000E+00	    0.000000E+00	
   -4.080454E-03	    1.132282E-02	    0.000000E+00	   -1.000000E+00	    1.000000E-03	    1.000000E-03	    1.000000E+03	    0.000000E+00	    0.000000E+00	    3.905117E+04	    0.000000E+00	    1.000000E+00	    0.000000E+00	    0.000000E+00	
   -3.475907E-03	    1.152069E-02	    0.000000E+00	   -1.000000E+00	    1.000000E-03	    1.000000E-03	    1.000000E+03	    0.000000E+00	    0.000000E+00	    3.772451E+04	    0.000000E+00	    1.000000E+00	    0.000000E+00	    0.000000E+00	
   -2.902065E-03	    1.167683E-02	    0.000000E+00	   -1.000000E+00	    1.000000E-03	    1.000000E-03	    1.000000E+03	    0.000000E+00	    0.000000E+00	    3.672493E+04	    0.000000E+00	    1.000000E+00	    0.000000E+00	    0.000000E+00	
   -2.361599E-03	    1.179678E-02	    0.000000E+00	   -1.000000E+00	    1.000000E-03	    1.000000E-03	    1.000000E+03	    0.000000E+00	    0.000000E+00	    3.598381E+04	    0.000000E+00	    1.000000E+00	    0.000000E+00	    0.000000E+00	
   -1.855907E-03	    1.188592E-02	    0.000000E+00	   -1.000000E+00	    1.000000E-03	    1.000000E-03	    1.000000E+03	    0.000000E+00	    0.000000E+00	    3.544753E+04	    0.000000E+00	    1.000000E+00	    0.000000E+00	    0.000000E+00	
   -1.385345E-03	    1.194926E-02	    0.000000E+00	   -1.000000E+00	    1.000000E-03	    1.000000E-03	    1.000000E+03	    0.000000E+00	    0.000000E+00	    3.507371E+04	    0.000000E+00	    1.000000E+00	    0.000000E+00	    0.000000E+00	
   -9.494686E-04	    1.199134E-02	    0.000000E+00	   -1.000000E+00	    1.000000E-03	    1.000000E-03	    1.000000E+03	    0.000000E+00	    0.000000E+00	    3.482864E+04	    0.000000E+00	    1.000000E+00	    0.000000E+00	    0.000000E+00	
   -5.472339E-04	    1.201617E-02	    0.000000E+00	   -1.000000E+00	    1.000000E-03	    1.000000E-03	    1.000000E+03	    0.000000E+00	    0.000000E+00	    3.468528E+04	    0.000000E+00	    1.000000E+00	    0.000000E+00	    0.000000E+00	
   -1.771813E-04	    1.202721E-02	    0.000000E+00	   -1.000000E+00	    1.000000E-03	    1.000000E-03	    1.000000E+03	    0.000000E+00	    0.000000E+00	    3.462182E+04	    0.000000E+00	    1.000000E+00	    0.000000E+00	    0.000000E+00	
    1.771813E-04	    1.202721E-02	    0.000000E+00	   -1.000000E+00	    1.000000E-03	    1.000000E-03	    1.000000E+03	    0.000000E+00	    0.000000E+00	    3.462182E+04	    0.000000E+00	    1.000000E+00	    0.000000E+00	    0.000000E+00	
    5.472339E-04	    1.201617E-02	    0.000000E+00	   -1.000000E+00	    1.000000E-03	    1.000000E-03	    1.000000E+03	    0.000000E+00	    0.000000E+00	    3.468528E+04	    0.000000E+00	    1.000000E+00	    0.000000E+00	    0.000000E+00	
    9.494686E-04	    1.199134E-02	    0.000000E+00	   -1.000000E+00	    1.000000E-03	    1.000000E-03	    1.000000E+03	    0.000000E+00	    0.000000E+00	    3.482864E+04	    0.000000E+00	    1.000000E+00	    0.000000E+00	    0.000000E+00	
    1.385345E-03	    1.194926E-02	    0.000000E+00	   -1.000000E+00	    1.000000E-03	    1.000000E-03	    1.000000E+03	    0.000000E+00	    0.000000E+00	    3.507371E+04	    0.000000E+00	    1.000000E+00	    0.000000E+00	    0.000000E+00	
    1.855907E-03	    1.188592E-02	    0.000000E+00	   -1.000000E+00	    1.000000E-03	    1.000000E-03	    1.000000E+03	    0.000000E+00	    0.000000E+00	    3.544753E+04	    0.000000E+00	    1.000000E+00	    0.000000E+00	    0.000000E+00	
    2.361599E-03	    1.179678E-02	    0.000000E+00	   -1.000000E+00	    1.000000E-03	    1.000000E-03	    1.000000E+03	    0.000000E+00	    0.000000E+00	    3.598381E+04	    0.000000E+00	    1.000000E+00	    0.000000E+00	    0.000000E+00	
    2.902065E-03	    1.167683E-02	    0.000000E+00	   -1.000000E+00	    1.000000E-03	    1.000000E-03	    1.000000E+03	    0.000000E+00	    0.000000E+00	    3.672493E+04	    0.000000E+00	    1.000000E+00	    0.000000E+00	    0.000000E+00	
    3.475907E-03	    1.152069E-02	    0.000000E+00	   -1.000000E+00	    1.000000E-03	    1.000000E-03	    1.000000E+03	    0.000000E+00	    0.000000E+00	    3.772451E+04	    0.000000E+00	    1.000000E+00	    0.000000E+00	    0.000000E+00	
    4.080454E-03	    1.132282E-02	    0.000000E+00	   -1.000000E+00	    1.000000E-03	    1.000000E-03	    1.000000E+03	    0.000000E+00	    0.000000E+00	    3.905117E+04	    0.000000E+00	    1.000000E+00	    0.000000E+00	    0.000000E+00	
    4.711536E-03	    1.107778E-02	    0.000000E+00	   -1.000000E+00	    1.000000E-03	    1.000000E-03	    1.000000E+03	    0.000000E+00	    0.000000E+00	    4.079357E+04	    0.000000E+00	    1.000000E+00	    0.000000E+00	    0.000000E+00	
    5.363328E-03	    1.078067E-02	    0.000000E+00	   -1.000000E+00	    1.000000E-03	    1.000000E-03	    1.000000E+03	    0.000000E+00	    0.000000E+00	    4.306773E+04	    0.000000E+00	    1.000000E+00	    0.000000E+00	    0.000000E+00	
    6.028288E-03	    1.042754E-02	    0.000000E+00	   -1.000000E+00	    1.000000E-03	    1.000000E-03	    1.000000E+03	    0.000000E+00	    0.000000E+00	    4.602739E+04	    0.000000E+00	    1.000000E+00	    0.000000E+00	    0.000000E+00	
    6.697247E-03	    1.001602E-02	    0.000000E+00	   -1.000000E+00	    1.000000E-03	    1.000000E-03	    1.000000E+03	    0.000000E+00	    0.000000E+00	    4.987898E+04	    0.000000E+00	    1.000000E+00	    0.000000E+00	    0.000000E+00	
    7.359702E-03	    9.545831E-03	    0.000000E+00	   -1.000000E+00	    1.000000E-03	    1.000000E-03	    1.000000E+03	    0.000000E+00	    0.000000E+00	    5.490362E+04	    0.000000E+00	    1.000000E+00	    0.000000E+00	    0.000000E+00	
    8.004317E-03	    9.019255E-03	    0.000000E+00	   -1.000000E+00	    1.000000E-03	    1.000000E-03	    1.000000E+03	    0.000000E+00	    0.000000E+00	    6.148938E+04	    0.000000E+00	    1.000000E+00	    0.000000E+00	    0.000000E+00	
    8.619619E-03	    8.441483E-03	    0.000000E+00	   -1.000000E+00	    1.000000E-03	    1.000000E-03	    1.000000E+03	    0.000000E+00	    0.000000E+00	    7.017966E+04	    0.000000E+00	    1.000000E+00	    0.000000E+00	    0.000000E+00	
    9.194834E-03	    7.820637E-03	    0.000000E+00	   -1.000000E+00	    1.000000E-03	    1.000000E-03	    1.000000E+03	    0.000000E+00	    0.000000E+00	    8.174616E+04	    0.000000E+00	    1.000000E+00	    0.000000E+00	    0.000000E+00	
    9.720744E-03	    7.167508E-03	    0.000000E+00	   -1.000000E+00	    1.000000E-03	    1.000000E-03	    1.000000E+03	    0.000000E+00	    0.000000E+00	    9.730055E+04	    0.000000E+00	    1.000000E+00	    0.000000E+00	    0.000000E+00	
    1.019044E-02	    6.494952E-03	    0.000000E+00	   -1.000000E+00	    1.000000E-03	    1.000000E-03	    1.000000E+03	    0.000000E+00	    0.000000E+00	    1.184673E+05	    0.000000E+00	    1.000000E+00	    0.000000E+00	    0.000000E+00	
    1.059983E-02	    5.817025E-03	    0.000000E+00	   -1.000000E+00	    1.000000E-03	    1.000000E-03	    1.000000E+03	    0.000000E+00	    0.000000E+00	    1.476551E+05	    0.000000E+00	    1.000000E+00	    0.000000E+00	    0.000000E+00	
    1.094784E-02	    5.147962E-03	    0.000000E+00	   -1.000000E+00	    1.000000E-03	    1.000000E-03	    1.000000E+03	    0.000000E+00	    0.000000E+00	    1.884871E+05	    0.000000E+00	    1.000000E+00	    0.000000E+00	    0.000000E+00	
    1.123626E-02	    4.501167E-03	    0.000000E+00	   -1.000000E+00	    1.000000E-03	    1.000000E-03	    1.000000E+03	    0.000000E+00	    0.000000E+00	    2.464951E+05	    0.000000E+00	    1.000000E+00	    0.000000E+00	    0.000000E+00	
    1.146925E-02	    3.888331E-03	    0.000000E+00	   -1.000000E+00	    1.000000E-03	    1.000000E-03	    1.000000E+03	    0.000000E+00	    0.000000E+00	    3.302506E+05	    0.000000E+00	    1.000000E+00	    0.000000E+00	    0.000000E+00	
    1.165276E-02	    3.318811E-03	    0.000000E+00	   -1.000000E+00	    1.000000E-03	    1.000000E-03	    1.000000E+03	    0.000000E+00	    0.000000E+00	    4.532346E+05	    0.000000E+00	    1.000000E+00	    0.000000E+00	    0.000000E+00	
    1.179371E-02	    2.799291E-03	    0.000000E+00	   -1.000000E+00	    1.000000E-03	    1.000000E-03	    1.000000E+03	    0.000000E+00	    0.000000E+00	    6.369678E+05	    0.000000E+00	    1.000000E+00	    0.000000E+00	    0.000000E+00	
    1.189934E-02	    2.333731E-03	    0.000000E+00	   -1.000000E+00	    1.000000E-03	    1.000000E-03	    1.000000E+03	    0.000000E+00	    0.000000E+00	    9.163158E+05	    0.000000E+00	    1.000000E+00	    0.000000E+00	    0.000000E+00	
    1.197665E-02	    1.923554E-03	    0.000000E+00	   -1.000000E+00	    1.000000E-03	    1.000000E-03	    1.000000E+03	    0.000000E+00	    0.000000E+00	    1.348588E+06	    0.000000E+00	    1.000000E+00	    0.000000E+00	    0.000000E+00	
    1.203196E-02	    1.567989E-03	    0.000000E+00	   -1.000000E+00	    1.000000E-03	    1.000000E-03	    1.000000E+03	    0.000000E+00	    0.000000E+00	    2.029324E+06	    0.000000E+00	    1.000000E+00	    0.000000E+00	    0.000000E+00	
    1.207069E-02	    1.264512E-03	    0.000000E+00	   -1.000000E+00	    1.000000E-03	    1.000000E-03	    1.000000E+03	    0.000000E+00	    0.000000E+00	    3.119952E+06	    0.000000E+00	    1.000000E+00	    0.000000E+00	    0.000000E+00	
    1.209726E-02	    1.009312E-03	    0.000000E+00	   -1.000000E+00	    1.000000E-03	    1.000000E-03	    1.000000E+03	    0.000000E+00	    0.000000E+00	    4.896735E+06	    0.000000E+00	    1.000000E+00	    0.000000E+00	    0.000000E+00	
    1.211518E-02	    7.977369E-04	    0.000000E+00	   -1.000000E+00	    1.000000E-03	    1.000000E-03	    1.000000E+03	    0.000000E+00	    0.000000E+00	    7.838043E+06	    0.000000E+00	    1.000000E+00	    0.000000E+00	    0.000000E+00	
    1.212706E-02	    6.246949E-04	    0.000000E+00	   -1.000000E+00	    1.000000E-03	    1.000000E-03	    1.000000E+03	    0.000000E+00	    0.000000E+00	    1.278104E+07	    0.000000E+00	    1.000000E+00	    0.000000E+00	    0.000000E+00	
    1.213485E-02	    4.849849E-04	    0.000000E+00	   -1.000000E+00	    1.000000E-03	    1.000000E-03	    1.000000E+03	    0.000000E+00	    0.000000E+00	    2.120439E+07	    0.000000E+00	    1.000000E+00	    0.000000E+00	    0.000000E+00	
    1.213991E-02	    3.735571E-04	    0.000000E+00	   -1.000000E+00	    1.000000E-03	    1.000000E-03	    1.000000E+03	    0.000000E+00	    0.000000E+00	    3.573981E+07	    0.000000E+00	    1.000000E+00	    0.000000E+00	    0.000000E+00	
    1.214317E-02	    2.856999E-04	    0.000000E+00	   -1.000000E+00	    1.000000E-03	    1.000000E-03	    1.000000E+03	    0.000000E+00	    0.000000E+00	    6.109890E+07	    0.000000E+00	    1.000000E+00	    0.000000E+00	    0.000000E+00	
    1.214528E-02	    2.171613E-04	    0.000000E+00	   -1.000000E+00	    1.000000E-03	    1.000000E-03	    1.000000E+03	    0.000000E+00	    0.000000E+00	    1.057497E+08	    0.000000E+00	    1.000000E+00	    0.000000E+00	    0.000000E+00	
    1.214664E-02	    1.642119E-04	    0.000000E+00	   -1.000000E+00	    1.000000E-03	    1.000000E-03	    1.000000E+03	    0.000000E+00	    0.000000E+00	    1.849385E+08	    0.000000E+00	    1.000000E+00	    0.000000E+00	    0.000000E+00	
    1.214753E-02	    1.236630E-04	    0.000000E+00	   -1.000000E+00	    1.000000E-03	    1.000000E-03	    1.000000E+03	    0.000000E+00	    0.000000E+00	    3.261000E+08	    0.000000E+00	    1.000000E+00	    0.000000E+00	    0.000000E+00	
    1.214811E-02	    9.284917E-05	    0.000000E+00	   -1.000000E+00	    1.000000E-03	    1.000000E-03	    1.000000E+03	    0.000000E+00	    0.000000E+00	    5.784556E+08	    0.000000E+00	    1.000000E+00	    0.000000E+00	    0.000000E+00	
    1.214850E-02	    6.958711E-05	    0.000000E+00	   -1.000000E+00	    1.000000E-03	    1.000000E-03	    1.000000E+03	    0.000000E+00	    0.000000E+00	    1.029829E+09	    0.000000E+00	    1.000000E+00	    0.000000E+00	    0.000000E+00	
    1.214864E-02	    6.022430E-05	    0.000000E+00	   -1.000000E+00	    1.000000E-03	    1.000000E-03	    1.000000E+03	    0.000000E+00	    0.000000E+00	    0.000000E+00	    0.000000E+00	    1.000000E+00	    0.000000E+00	    0.000000E+00	
   -1.214840E-02	    6.022021E-05	    0.000000E+00	   -1.000000E+00	    1.000000E-03	    1.000000E-03	    1.000000E+03	    0.000000E+00	    0.000000E+00	    0.000000E+00	    0.000000E+00	    1.000000E+00	    0.000000E+00	    0.000000E+00	
   -1.214822E-02	    6.958217E-05	    4.783892E-05	   -1.000000E+00	    1.000000E-03	    1.000000E-03	    1.000000E+03	    3.493614E-16	    3.597824E-10	    1.029829E+09	    2.947320E+04	    1.000000E+00	    2.787164E-07	    1.560463E+01	
   -1.214774E-02	    9.284187E-05	    1.469576E-04	   -1.000000E+00	    1.000000E-03	    1.000000E-03	    1.000000E+03	    1.221503E-15	    7.065854E-10	    5.784556E+08	    1.561408E+05	    1.000000E+00	    3.718861E-07	    3.773386E+01	
   -1.214703E-02	    1.236520E-04	    2.580820E-04	   -1.000000E+00	    1.000000E-03	    1.000000E-03	    1.000000E+03	    6.697772E-15	    2.184144E-09	    3.261000E+08	    2.714613E+05	    1.000000E+00	    4.953014E-07	    6.568046E+01	
   -1.214598E-02	    1.641951E-04	    3.900989E-04	   -1.000000E+00	    1.000000E-03	    1.000000E-03	    1.000000E+03	    2.708861E-14	    5.009726E-09	    1.849385E+08	    3.517244E+05	    1.000000E+00	    6.577053E-07	    8.526992E+01	
   -1.214441E-02	    2.171353E-04	    5.526824E-04	   -1.000000E+00	    1.000000E-03	    1.000000E-03	    1.000000E+03	    9.566385E-14	    1.011642E-08	    1.057497E+08	    4.036797E+05	    1.000000E+00	    8.697720E-07	    9.816468E+01	
   -1.214203E-02	    2.856593E-04	    7.560415E-04	   -1.000000E+00	    1.000000E-03	    1.000000E-03	    1.000000E+03	    3.123501E-13	    1.908424E-08	    6.109890E+07	    4.364212E+05	    1.000000E+00	    1.144269E-06	    1.065623E+02	
   -1.213842E-02	    3.734931E-04	    1.010558E-03	   -1.000000E+00	    1.000000E-03	    1.000000E-03	    1.000000E+03	    9.640716E-13	    3.445574E-08	    3.573981E+07	    4.560603E+05	    1.000000E+00	    1.496128E-06	    1.119518E+02	
   -1.213291E-02	    4.848841E-04	    1.327237E-03	   -1.000000E+00	    1.000000E-03	    1.000000E-03	    1.000000E+03	    2.841000E-12	    6.024167E-08	    2.120439E+07	    4.666881E+05	    1.000000E+00	    1.942371E-06	    1.153479E+02	
   -1.212457E-02	    6.245362E-04	    1.718432E-03	   -1.000000E+00	    1.000000E-03	    1.000000E-03	    1.000000E+03	    8.039096E-12	    1.027480E-07	    1.278104E+07	    4.714970E+05	    1.000000E+00	    2.501853E-06	    1.175634E+02	
   -1.211199E-02	    7.974888E-04	    2.197736E-03	   -1.000000E+00	    1.000000E-03	    1.000000E-03	    1.000000E+03	    2.191600E-11	    1.717785E-07	    7.838043E+06	    4.728646E+05	    1.000000E+00	    3.194782E-06	    1.192215E+02	
   -1.209324E-02	    1.008928E-03	    2.779077E-03	   -1.000000E+00	    1.000000E-03	    1.000000E-03	    1.000000E+03	    5.763973E-11	    2.822465E-07	    4.896735E+06	    4.722797E+05	    1.000000E+00	    4.041957E-06	    1.207281E+02	
   -1.206566E-02	    1.263924E-03	    3.475549E-03	   -1.000000E+00	    1.000000E-03	    1.000000E-03	    1.000000E+03	    1.462340E-10	    4.562430E-07	    3.119952E+06	    4.705233E+05	    1.000000E+00	    5.063736E-06	    1.223084E+02	
   -1.202575E-02	    1.567103E-03	    4.298934E-03	   -1.000000E+00	    1.000000E-03	    1.000000E-03	    1.000000E+03	    3.576662E-10	    7.258204E-07	    2.029324E+06	    4.680940E+05	    1.000000E+00	    6.278694E-06	    1.241119E+02	
   -1.196906E-02	    1.922243E-03	    5.257539E-03	   -1.000000E+00	    1.000000E-03	    1.000000E-03	    1.000000E+03	    8.420491E-10	    1.135578E-06	    1.348588E+06	    4.651098E+05	    1.000000E+00	    7.702032E-06	    1.261703E+02	
   -1.189019E-02	    2.331825E-03	    6.355842E-03	   -1.000000E+00	    1.000000E-03	    1.000000E-03	    1.000000E+03	    1.904986E-09	    1.745569E-06	    9.163158E+05	    4.616663E+05	    1.000000E+00	    9.343777E-06	    1.284912E+02	
   -1.178283E-02	    2.796576E-03	    7.594111E-03	   -1.000000E+00	    1.000001E-03	    1.000000E-03	    1.000000E+03	    4.134729E-09	    2.633689E-06	    6.369678E+05	    4.579388E+05	    1.000000E+00	    1.120692E-05	    1.310881E+02	
   -1.164002E-02	    3.315025E-03	    8.968599E-03	   -1.000000E+00	    1.000001E-03	    1.000000E-03	    1.000000E+03	    8.599465E-09	    3.897575E-06	    4.532346E+05	    4.542340E+05	    1.000000E+00	    1.328568E-05	    1.340082E+02	
   -1.145457E-02	    3.883167E-03	    1.046836E-02	   -1.000000E+00	    1.000003E-03	    1.000000E-03	    1.000000E+03	    1.711089E-08	    5.650881E-06	    3.302506E+05	    4.506616E+05	    1.000000E+00	    1.556409E-05	    1.372354E+02	
   -1.121961E-02	    4.494282E-03	    1.206465E-02	   -1.000000E+00	    1.000005E-03	    1.000000E-03	    1.000000E+03	    3.242085E-08	    7.991582E-06	    2.464951E+05	    4.464707E+05	    1.000000E+00	    1.801531E-05	    1.403862E+02	
   -1.092930E-02	    5.138994E-03	    1.375302E-02	   -1.000000E+00	    1.000009E-03	    1.000000E-03	    1.000000E+03	    5.873154E-08	    1.107014E-05	    1.884871E+05	    4.433068E+05	    1.000000E+00	    2.060183E-05	    1.440256E+02	
   -1.057954E-02	    5.805612E-03	    1.547536E-02	   -1.000000E+00	    1.000015E-03	    1.000000E-03	    1.000000E+03	    1.009088E-07	    1.489970E-05	    1.476551E+05	    4.393140E+05	    1.000000E+00	    2.327681E-05	    1.472852E+02	
   -1.016867E-02	    6.480764E-03	    1.722095E-02	   -1.000000E+00	    1.000025E-03	    1.000000E-03	    1.000000E+03	    1.653002E-07	    1.958267E-05	    1.184673E+05	    4.360341E+05	    1.000000E+00	    2.598664E-05	    1.507542E+02	
   -9.697830E-03	    7.150269E-03	    1.896074E-02	   -1.000000E+00	    1.000039E-03	    1.000000E-03	    1.000000E+03	    2.582744E-07	    2.513024E-05	    9.730055E+04	    4.336413E+05	    1.000000E+00	    2.867440E-05	    1.544335E+02	
   -9.171190E-03	    7.800151E-03	    2.061624E-02	   -1.000000E+00	    1.000057E-03	    1.000000E-03	    1.000000E+03	    3.822493E-07	    3.124741E-05	    8.174616E+04	    4.301343E+05	    1.000000E+00	    3.128395E-05	    1.573077E+02	
   -8.595699E-03	    8.417653E-03	    2.219350E-02	   -1.000000E+00	    1.000081E-03	    1.000000E-03	    1.000000E+03	    5.407975E-07	    3.795298E-05	    7.017966E+04	    4.272838E+05	    1.000000E+00	    3.376400E-05	    1.602204E+02	
   -7.980589E-03	    8.992087E-03	    2.366398E-02	   -1.000000E+00	    1.000110E-03	    1.000000E-03	    1.000000E+03	    7.322165E-07	    4.502354E-05	    6.148938E+04	    4.249058E+05	    1.000000E+00	    3.607154E-05	    1.630253E+02	
   -7.336616E-03	    9.515429E-03	    2.500613E-02	   -1.000000E+00	    1.000143E-03	    1.000000E-03	    1.000000E+03	    9.507265E-07	    5.219832E-05	    5.490362E+04	    4.228840E+05	    1.000000E+00	    3.817421E-05	    1.656195E+02	
   -6.675207E-03	    9.982582E-03	    2.620772E-02	   -1.000000E+00	    1.000178E-03	    1.000000E-03	    1.000000E+03	    1.187383E-06	    5.922545E-05	    4.987898E+04	    4.211992E+05	    1.000000E+00	    4.005144E-05	    1.679670E+02	
   -6.007637E-03	    1.039132E-02	    2.726536E-02	   -1.000000E+00	    1.000215E-03	    1.000000E-03	    1.000000E+03	    1.431718E-06	    6.589826E-05	    4.602739E+04	    4.198974E+05	    1.000000E+00	    4.169417E-05	    1.700882E+02	
   -5.344335E-03	    1.074197E-02	    2.814813E-02	   -1.000000E+00	    1.000250E-03	    1.000000E-03	    1.000000E+03	    1.665520E-06	    7.173018E-05	    4.306773E+04	    4.180174E+05	    1.000000E+00	    4.310363E-05	    1.714153E+02	
   -4.694393E-03	    1.103695E-02	    2.889510E-02	   -1.000000E+00	    1.000283E-03	    1.000000E-03	    1.000000E+03	    1.885921E-06	    7.693343E-05	    4.079357E+04	    4.165696E+05	    1.000000E+00	    4.428941E-05	    1.726071E+02	
   -4.065280E-03	    1.128017E-02	    2.951293E-02	   -1.000000E+00	    1.000313E-03	    1.000000E-03	    1.000000E+03	    2.085112E-06	    8.142605E-05	    3.905117E+04	    4.154228E+05	    1.000000E+00	    4.526725E-05	    1.736211E+02	
   -3.462757E-03	    1.147655E-02	    3.001252E-02	   -1.000000E+00	    1.000339E-03	    1.000000E-03	    1.000000E+03	    2.258128E-06	    8.518676E-05	    3.772451E+04	    4.145091E+05	    1.000000E+00	    4.605682E-05	    1.744526E+02	
   -2.890937E-03	    1.163149E-02	    3.040701E-02	   -1.000000E+00	    1.000360E-03	    1.000000E-03	    1.000000E+03	    2.402688E-06	    8.823853E-05	    3.672493E+04	    4.137900E+05	    1.000000E+00	    4.667982E-05	    1.751141E+02	
   -2.352451E-03	    1.175052E-02	    3.071016E-02	   -1.000000E+00	    1.000378E-03	    1.000000E-03	    1.000000E+03	    2.518735E-06	    9.063369E-05	    3.598381E+04	    4.132360E+05	    1.000000E+00	    4.715842E-05	    1.756245E+02	
   -1.848663E-03	    1.183896E-02	    3.093545E-02	   -1.000000E+00	    1.000391E-03	    1.000000E-03	    1.000000E+03	    2.607859E-06	    9.244214E-05	    3.544753E+04	    4.128221E+05	    1.000000E+00	    4.751407E-05	    1.760045E+02	
   -1.379910E-03	    1.190181E-02	    3.109550E-02	   -1.000000E+00	    1.000401E-03	    1.000000E-03	    1.000000E+03	    2.672709E-06	    9.374181E-05	    3.507371E+04	    4.125256E+05	    1.000000E+00	    4.776679E-05	    1.762742E+02	
   -9.457302E-04	    1.194356E-02	    3.120176E-02	   -1.000000E+00	    1.000407E-03	    1.000000E-03	    1.000000E+03	    2.716489E-06	    9.461162E-05	    3.482864E+04	    4.123263E+05	    1.000000E+00	    4.793468E-05	    1.764528E+02	
   -5.450748E-04	    1.196818E-02	    3.126434E-02	   -1.000000E+00	    1.000411E-03	    1.000000E-03	    1.000000E+03	    2.742565E-06	    9.512661E-05	    3.468528E+04	    4.122056E+05	    1.000000E+00	    4.803372E-05	    1.765568E+02	
   -1.764816E-04	    1.197914E-02	    3.129196E-02	   -1.000000E+00	    1.000413E-03	    1.000000E-03	    1.000000E+03	    2.754184E-06	    9.535485E-05	    3.462182E+04	    4.121469E+05	    1.000000E+00	    4.807776E-05	    1.766008E+02	
    1.764816E-04	    1.197914E-02	    3.129196E-02	   -1.000000E+00	    1.000413E-03	    1.000000E-03	    1.000000E+03	    2.754184E-06	    9.535485E-05	    3.462182E+04	    4.121469E+05	    1.000000E+00	    4.807776E-05	    1.766008E+02	