Title="Fields"
Variables="X""Y""Velocity""Phi""Effective Viscosity""Dynamic Viscosity""Density""Eddy Viscosity""K""Omega""S"
Zone I=82 J=82 F=POINT
   -2.799976E-02	    1.388097E-04	    0.000000E+00	   -1.000000E+00	    1.640000E-03	    1.640000E-03	    7.900000E+02	    0.000000E+00	    0.000000E+00	    0.000000E+00	    0.000000E+00	
   -2.799966E-02	    1.603912E-04	    0.000000E+00	   -1.000000E+00	    1.640000E-03	    1.640000E-03	    7.900000E+02	    0.000000E+00	    0.000000E+00	    0.000000E+00	    0.000000E+00	
   -2.799935E-02	    2.140124E-04	    0.000000E+00	   -1.000000E+00	    1.640000E-03	    1.640000E-03	    7.900000E+02	    0.000000E+00	    0.000000E+00	    0.000000E+00	    0.000000E+00	
   -2.799878E-02	    2.850444E-04	    0.000000E+00	   -1.000000E+00	    1.640000E-03	    1.640000E-03	    7.900000E+02	    0.000000E+00	    0.000000E+00	    0.000000E+00	    0.000000E+00	
   -2.799775E-02	    3.785236E-04	    0.000000E+00	   -1.000000E+00	    1.640000E-03	    1.640000E-03	    7.900000E+02	    0.000000E+00	    0.000000E+00	    0.000000E+00	    0.000000E+00	
   -2.799593E-02	    5.006005E-04	    0.000000E+00	   -1.000000E+00	    1.640000E-03	    1.640000E-03	    7.900000E+02	    0.000000E+00	    0.000000E+00	    0.000000E+00	    0.000000E+00	
   -2.799279E-02	    6.586363E-04	    0.000000E+00	   -1.000000E+00	    1.640000E-03	    1.640000E-03	    7.900000E+02	    0.000000E+00	    0.000000E+00	    0.000000E+00	    0.000000E+00	
   -2.798746E-02	    8.612446E-04	    0.000000E+00	   -1.000000E+00	    1.640000E-03	    1.640000E-03	    7.900000E+02	    0.000000E+00	    0.000000E+00	    0.000000E+00	    0.000000E+00	
   -2.797858E-02	    1.118255E-03	    0.000000E+00	   -1.000000E+00	    1.640000E-03	    1.640000E-03	    7.900000E+02	    0.000000E+00	    0.000000E+00	    0.000000E+00	    0.000000E+00	
   -2.796410E-02	    1.440571E-03	    0.000000E+00	   -1.000000E+00	    1.640000E-03	    1.640000E-03	    7.900000E+02	    0.000000E+00	    0.000000E+00	    0.000000E+00	    0.000000E+00	
   -2.794100E-02	    1.839897E-03	    0.000000E+00	   -1.000000E+00	    1.640000E-03	    1.640000E-03	    7.900000E+02	    0.000000E+00	    0.000000E+00	    0.000000E+00	    0.000000E+00	
   -2.790495E-02	    2.328312E-03	    0.000000E+00	   -1.000000E+00	    1.640000E-03	    1.640000E-03	    7.900000E+02	    0.000000E+00	    0.000000E+00	    0.000000E+00	    0.000000E+00	
   -2.784999E-02	    2.917680E-03	    0.000000E+00	   -1.000000E+00	    1.640000E-03	    1.640000E-03	    7.900000E+02	    0.000000E+00	    0.000000E+00	    0.000000E+00	    0.000000E+00	
   -2.776817E-02	    3.618889E-03	    0.000000E+00	   -1.000000E+00	    1.640000E-03	    1.640000E-03	    7.900000E+02	    0.000000E+00	    0.000000E+00	    0.000000E+00	    0.000000E+00	
   -2.764930E-02	    4.440936E-03	    0.000000E+00	   -1.000000E+00	    1.640000E-03	    1.640000E-03	    7.900000E+02	    0.000000E+00	    0.000000E+00	    0.000000E+00	    0.000000E+00	
   -2.748088E-02	    5.389892E-03	    0.000000E+00	   -1.000000E+00	    1.640000E-03	    1.640000E-03	    7.900000E+02	    0.000000E+00	    0.000000E+00	    0.000000E+00	    0.000000E+00	
   -2.724825E-02	    6.467820E-03	    0.000000E+00	   -1.000000E+00	    1.640000E-03	    1.640000E-03	    7.900000E+02	    0.000000E+00	    0.000000E+00	    0.000000E+00	    0.000000E+00	
   -2.693511E-02	    7.671743E-03	    0.000000E+00	   -1.000000E+00	    1.640000E-03	    1.640000E-03	    7.900000E+02	    0.000000E+00	    0.000000E+00	    0.000000E+00	    0.000000E+00	
   -2.652444E-02	    8.992821E-03	    0.000000E+00	   -1.000000E+00	    1.640000E-03	    1.640000E-03	    7.900000E+02	    0.000000E+00	    0.000000E+00	    0.000000E+00	    0.000000E+00	
   -2.599985E-02	    1.041588E-02	    0.000000E+00	   -1.000000E+00	    1.640000E-03	    1.640000E-03	    7.900000E+02	    0.000000E+00	    0.000000E+00	    0.000000E+00	    0.000000E+00	
   -2.534716E-02	    1.191949E-02	    0.000000E+00	   -1.000000E+00	    1.640000E-03	    1.640000E-03	    7.900000E+02	    0.000000E+00	    0.000000E+00	    0.000000E+00	    0.000000E+00	
   -2.455613E-02	    1.347670E-02	    0.000000E+00	   -1.000000E+00	    1.640000E-03	    1.640000E-03	    7.900000E+02	    0.000000E+00	    0.000000E+00	    0.000000E+00	    0.000000E+00	
   -2.362206E-02	    1.505644E-02	    0.000000E+00	   -1.000000E+00	    1.640000E-03	    1.640000E-03	    7.900000E+02	    0.000000E+00	    0.000000E+00	    0.000000E+00	    0.000000E+00	
   -2.254687E-02	    1.662557E-02	    0.000000E+00	   -1.000000E+00	    1.640000E-03	    1.640000E-03	    7.900000E+02	    0.000000E+00	    0.000000E+00	    0.000000E+00	    0.000000E+00	
   -2.133955E-02	    1.815119E-02	    0.000000E+00	   -1.000000E+00	    1.640000E-03	    1.640000E-03	    7.900000E+02	    0.000000E+00	    0.000000E+00	    0.000000E+00	    0.000000E+00	
   -2.001573E-02	    1.960305E-02	    0.000000E+00	   -1.000000E+00	    1.640000E-03	    1.640000E-03	    7.900000E+02	    0.000000E+00	    0.000000E+00	    0.000000E+00	    0.000000E+00	
   -1.859658E-02	    2.095565E-02	    0.000000E+00	   -1.000000E+00	    1.640000E-03	    1.640000E-03	    7.900000E+02	    0.000000E+00	    0.000000E+00	    0.000000E+00	    0.000000E+00	
   -1.710703E-02	    2.218961E-02	    0.000000E+00	   -1.000000E+00	    1.640000E-03	    1.640000E-03	    7.900000E+02	    0.000000E+00	    0.000000E+00	    0.000000E+00	    0.000000E+00	
   -1.557379E-02	    2.329244E-02	    0.000000E+00	   -1.000000E+00	    1.640000E-03	    1.640000E-03	    7.900000E+02	    0.000000E+00	    0.000000E+00	    0.000000E+00	    0.000000E+00	
   -1.402338E-02	    2.425840E-02	    0.000000E+00	   -1.000000E+00	    1.640000E-03	    1.640000E-03	    7.900000E+02	    0.000000E+00	    0.000000E+00	    0.000000E+00	    0.000000E+00	
   -1.248048E-02	    2.508788E-02	    0.000000E+00	   -1.000000E+00	    1.640000E-03	    1.640000E-03	    7.900000E+02	    0.000000E+00	    0.000000E+00	    0.000000E+00	    0.000000E+00	
   -1.096669E-02	    2.578620E-02	    0.000000E+00	   -1.000000E+00	    1.640000E-03	    1.640000E-03	    7.900000E+02	    0.000000E+00	    0.000000E+00	    0.000000E+00	    0.000000E+00	
   -9.499860E-03	    2.636239E-02	    0.000000E+00	   -1.000000E+00	    1.640000E-03	    1.640000E-03	    7.900000E+02	    0.000000E+00	    0.000000E+00	    0.000000E+00	    0.000000E+00	
   -8.093835E-03	    2.682787E-02	    0.000000E+00	   -1.000000E+00	    1.640000E-03	    1.640000E-03	    7.900000E+02	    0.000000E+00	    0.000000E+00	    0.000000E+00	    0.000000E+00	
   -6.758563E-03	    2.719529E-02	    0.000000E+00	   -1.000000E+00	    1.640000E-03	    1.640000E-03	    7.900000E+02	    0.000000E+00	    0.000000E+00	    0.000000E+00	    0.000000E+00	
   -5.500477E-03	    2.747762E-02	    0.000000E+00	   -1.000000E+00	    1.640000E-03	    1.640000E-03	    7.900000E+02	    0.000000E+00	    0.000000E+00	    0.000000E+00	    0.000000E+00	
   -4.322999E-03	    2.768747E-02	    0.000000E+00	   -1.000000E+00	    1.640000E-03	    1.640000E-03	    7.900000E+02	    0.000000E+00	    0.000000E+00	    0.000000E+00	    0.000000E+00	
   -3.227096E-03	    2.783662E-02	    0.000000E+00	   -1.000000E+00	    1.640000E-03	    1.640000E-03	    7.900000E+02	    0.000000E+00	    0.000000E+00	    0.000000E+00	    0.000000E+00	
   -2.211826E-03	    2.793571E-02	    0.000000E+00	   -1.000000E+00	    1.640000E-03	    1.640000E-03	    7.900000E+02	    0.000000E+00	    0.000000E+00	    0.000000E+00	    0.000000E+00	
   -1.274832E-03	    2.799417E-02	    0.000000E+00	   -1.000000E+00	    1.640000E-03	    1.640000E-03	    7.900000E+02	    0.000000E+00	    0.000000E+00	    0.000000E+00	    0.000000E+00	
   -4.127644E-04	    2.802016E-02	    0.000000E+00	   -1.000000E+00	    1.640000E-03	    1.640000E-03	    7.900000E+02	    0.000000E+00	    0.000000E+00	    0.000000E+00	    0.000000E+00	
    4.127644E-04	    2.802016E-02	    0.000000E+00	   -1.000000E+00	    1.640000E-03	    1.640000E-03	    7.900000E+02	    0.000000E+00	    0.000000E+00	    0.000000E+00	    0.000000E+00	
    1.274832E-03	    2.799417E-02	    0.000000E+00	   -1.000000E+00	    1.640000E-03	    1.640000E-03	    7.900000E+02	    0.000000E+00	    0.000000E+00	    0.000000E+00	    0.000000E+00	
    2.211826E-03	    2.793571E-02	    0.000000E+00	   -1.000000E+00	    1.640000E-03	    1.640000E-03	    7.900000E+02	    0.000000E+00	    0.000000E+00	    0.000000E+00	    0.000000E+00	
    3.227096E-03	    2.783662E-02	    0.000000E+00	   -1.000000E+00	    1.640000E-03	    1.640000E-03	    7.900000E+02	    0.000000E+00	    0.000000E+00	    0.000000E+00	    0.000000E+00	
    4.322999E-03	    2.768747E-02	    0.000000E+00	   -1.000000E+00	    1.640000E-03	    1.640000E-03	    7.900000E+02	    0.000000E+00	    0.000000E+00	    0.000000E+00	    0.000000E+00	
    5.500477E-03	    2.747762E-02	    0.000000E+00	   -1.000000E+00	    1.640000E-03	    1.640000E-03	    7.900000E+02	    0.000000E+00	    0.000000E+00	    0.000000E+00	    0.000000E+00	
    6.758563E-03	    2.719529E-02	    0.000000E+00	   -1.000000E+00	    1.640000E-03	    1.640000E-03	    7.900000E+02	    0.000000E+00	    0.000000E+00	    0.000000E+00	    0.000000E+00	
    8.093835E-03	    2.682787E-02	    0.000000E+00	   -1.000000E+00	    1.640000E-03	    1.640000E-03	    7.900000E+02	    0.000000E+00	    0.000000E+00	    0.000000E+00	    0.000000E+00	
    9.499860E-03	    2.636239E-02	    0.000000E+00	   -1.000000E+00	    1.640000E-03	    1.640000E-03	    7.900000E+02	    0.000000E+00	    0.000000E+00	    0.000000E+00	    0.000000E+00	
    1.096669E-02	    2.578620E-02	    0.000000E+00	   -1.000000E+00	    1.640000E-03	    1.640000E-03	    7.900000E+02	    0.000000E+00	    0.000000E+00	    0.000000E+00	    0.000000E+00	
    1.248048E-02	    2.508788E-02	    0.000000E+00	   -1.000000E+00	    1.640000E-03	    1.640000E-03	    7.900000E+02	    0.000000E+00	    0.000000E+00	    0.000000E+00	    0.000000E+00	
    1.402338E-02	    2.425840E-02	    0.000000E+00	   -1.000000E+00	    1.640000E-03	    1.640000E-03	    7.900000E+02	    0.000000E+00	    0.000000E+00	    0.000000E+00	    0.000000E+00	
    1.557379E-02	    2.329244E-02	    0.000000E+00	   -1.000000E+00	    1.640000E-03	    1.640000E-03	    7.900000E+02	    0.000000E+00	    0.000000E+00	    0.000000E+00	    0.000000E+00	
    1.710703E-02	    2.218961E-02	    0.000000E+00	   -1.000000E+00	    1.640000E-03	    1.640000E-03	    7.900000E+02	    0.000000E+00	    0.000000E+00	    0.000000E+00	    0.000000E+00	
    1.859658E-02	    2.095565E-02	    0.000000E+00	   -1.000000E+00	    1.640000E-03	    1.640000E-03	    7.900000E+02	    0.000000E+00	    0.000000E+00	    0.000000E+00	    0.000000E+00	
    2.001573E-02	    1.960305E-02	    0.000000E+00	   -1.000000E+00	    1.640000E-03	    1.640000E-03	    7.900000E+02	    0.000000E+00	    0.000000E+00	    0.000000E+00	    0.000000E+00	
    2.133955E-02	    1.815119E-02	    0.000000E+00	   -1.000000E+00	    1.640000E-03	    1.640000E-03	    7.900000E+02	    0.000000E+00	    0.000000E+00	    0.000000E+00	    0.000000E+00	
    2.254687E-02	    1.662557E-02	    0.000000E+00	   -1.000000E+00	    1.640000E-03	    1.640000E-03	    7.900000E+02	    0.000000E+00	    0.000000E+00	    0.000000E+00	    0.000000E+00	
    2.362206E-02	    1.505644E-02	    0.000000E+00	   -1.000000E+00	    1.640000E-03	    1.640000E-03	    7.900000E+02	    0.000000E+00	    0.000000E+00	    0.000000E+00	    0.000000E+00	
    2.455613E-02	    1.347670E-02	    0.000000E+00	   -1.000000E+00	    1.640000E-03	    1.640000E-03	    7.900000E+02	    0.000000E+00	    0.000000E+00	    0.000000E+00	    0.000000E+00	
    2.534716E-02	    1.191949E-02	    0.000000E+00	   -1.000000E+00	    1.640000E-03	    1.640000E-03	    7.900000E+02	    0.000000E+00	    0.000000E+00	    0.000000E+00	    0.000000E+00	
    2.599985E-02	    1.041588E-02	    0.000000E+00	   -1.000000E+00	    1.640000E-03	    1.640000E-03	    7.900000E+02	    0.000000E+00	    0.000000E+00	    0.000000E+00	    0.000000E+00	
    2.652444E-02	    8.992821E-03	    0.000000E+00	   -1.000000E+00	    1.640000E-03	    1.640000E-03	    7.900000E+02	    0.000000E+00	    0.000000E+00	    0.000000E+00	    0.000000E+00	
    2.693511E-02	    7.671743E-03	    0.000000E+00	   -1.000000E+00	    1.640000E-03	    1.640000E-03	    7.900000E+02	    0.000000E+00	    0.000000E+00	    0.000000E+00	    0.000000E+00	
    2.724825E-02	    6.467820E-03	    0.000000E+00	   -1.000000E+00	    1.640000E-03	    1.640000E-03	    7.900000E+02	    0.000000E+00	    0.000000E+00	    0.000000E+00	    0.000000E+00	
    2.748088E-02	    5.389892E-03	    0.000000E+00	   -1.000000E+00	    1.640000E-03	    1.640000E-03	    7.900000E+02	    0.000000E+00	    0.000000E+00	    0.000000E+00	    0.000000E+00	
    2.764930E-02	    4.440936E-03	    0.000000E+00	   -1.000000E+00	    1.640000E-03	    1.640000E-03	    7.900000E+02	    0.000000E+00	    0.000000E+00	    0.000000E+00	    0.000000E+00	
    2.776817E-02	    3.618889E-03	    0.000000E+00	   -1.000000E+00	    1.640000E-03	    1.640000E-03	    7.900000E+02	    0.000000E+00	    0.000000E+00	    0.000000E+00	    0.000000E+00	
    2.784999E-02	    2.917680E-03	    0.000000E+00	   -1.000000E+00	    1.640000E-03	    1.640000E-03	    7.900000E+02	    0.000000E+00	    0.000000E+00	    0.000000E+00	    0.000000E+00	
    2.790495E-02	    2.328312E-03	    0.000000E+00	   -1.000000E+00	    1.640000E-03	    1.640000E-03	    7.900000E+02	    0.000000E+00	    0.000000E+00	    0.000000E+00	    0.000000E+00	
    2.794100E-02	    1.839897E-03	    0.000000E+00	   -1.000000E+00	    1.640000E-03	    1.640000E-03	    7.900000E+02	    0.000000E+00	    0.000000E+00	    0.000000E+00	    0.000000E+00	
    2.796410E-02	    1.440571E-03	    0.000000E+00	   -1.000000E+00	    1.640000E-03	    1.640000E-03	    7.900000E+02	    0.000000E+00	    0.000000E+00	    0.000000E+00	    0.000000E+00	
    2.797858E-02	    1.118255E-03	    0.000000E+00	   -1.000000E+00	    1.640000E-03	    1.640000E-03	    7.900000E+02	    0.000000E+00	    0.000000E+00	    0.000000E+00	    0.000000E+00	
    2.798746E-02	    8.612446E-04	    0.000000E+00	   -1.000000E+00	    1.640000E-03	    1.640000E-03	    7.900000E+02	    0.000000E+00	    0.000000E+00	    0.000000E+00	    0.000000E+00	
    2.799279E-02	    6.586363E-04	    0.000000E+00	   -1.000000E+00	    1.640000E-03	    1.640000E-03	    7.900000E+02	    0.000000E+00	    0.000000E+00	    0.000000E+00	    0.000000E+00	
    2.799593E-02	    5.006005E-04	    0.000000E+00	   -1.000000E+00	    1.640000E-03	    1.640000E-03	    7.900000E+02	    0.000000E+00	    0.000000E+00	    0.000000E+00	    0.000000E+00	
    2.799775E-02	    3.785236E-04	    0.000000E+00	   -1.000000E+00	    1.640000E-03	    1.640000E-03	    7.900000E+02	    0.000000E+00	    0.000000E+00	    0.000000E+00	    0.000000E+00	
    2.799878E-02	    2.850444E-04	    0.000000E+00	   -1.000000E+00	    1.640000E-03	    1.640000E-03	    7.900000E+02	    0.000000E+00	    0.000000E+00	    0.000000E+00	    0.000000E+00	
    2.799935E-02	    2.140124E-04	    0.000000E+00	   -1.000000E+00	    1.640000E-03	    1.640000E-03	    7.900000E+02	    0.000000E+00	    0.000000E+00	    0.000000E+00	    0.000000E+00	
    2.799966E-02	    1.603912E-04	    0.000000E+00	   -1.000000E+00	    1.640000E-03	    1.640000E-03	    7.900000E+02	    0.000000E+00	    0.000000E+00	    0.000000E+00	    0.000000E+00	
    2.799976E-02	    1.388097E-04	    0.000000E+00	   -1.000000E+00	    1.640000E-03	    1.640000E-03	    7.900000E+02	    0.000000E+00	    0.000000E+00	    0.000000E+00	    0.000000E+00	
   -2.799920E-02	    1.388063E-04	    0.000000E+00	   -1.000000E+00	    1.640000E-03	    1.640000E-03	    7.900000E+02	    0.000000E+00	    0.000000E+00	    0.000000E+00	    0.000000E+00	
   -2.799902E-02	    1.603868E-04	    7.133531E-05	   -1.000000E+00	    1.640493E-03	    1.640000E-03	    7.900000E+02	    3.285953E-06	    8.199524E-04	    1.971308E+05	    1.211067E+04	
   -2.799849E-02	    2.140047E-04	    2.146145E-04	   -1.000000E+00	    1.640424E-03	    1.640000E-03	    7.900000E+02	    2.827176E-06	    3.409249E-04	    9.526489E+04	    6.180971E+04	
   -2.799763E-02	    2.850314E-04	    3.724220E-04	   -1.000000E+00	    1.640591E-03	    1.640000E-03	    7.900000E+02	    3.939785E-06	    3.732114E-04	    7.483581E+04	    1.049065E+05	
   -2.799622E-02	    3.785012E-04	    5.542895E-04	   -1.000000E+00	    1.640894E-03	    1.640000E-03	    7.900000E+02	    5.957938E-06	    4.840017E-04	    6.417679E+04	    1.317505E+05	
   -2.799391E-02	    5.005620E-04	    7.721037E-04	   -1.000000E+00	    1.641321E-03	    1.640000E-03	    7.900000E+02	    8.809893E-06	    6.050721E-04	    5.425798E+04	    1.461185E+05	
   -2.799013E-02	    6.585706E-04	    1.039610E-03	   -1.000000E+00	    1.641909E-03	    1.640000E-03	    7.900000E+02	    1.272933E-05	    7.297570E-04	    4.528974E+04	    1.529713E+05	
   -2.798398E-02	    8.611336E-04	    1.372666E-03	   -1.000000E+00	    1.642711E-03	    1.640000E-03	    7.900000E+02	    1.807347E-05	    8.604017E-04	    3.760857E+04	    1.558819E+05	
   -2.797407E-02	    1.118070E-03	    1.789123E-03	   -1.000000E+00	    1.643794E-03	    1.640000E-03	    7.900000E+02	    2.529012E-05	    9.993263E-04	    3.121644E+04	    1.569608E+05	
   -2.795830E-02	    1.440265E-03	    2.308455E-03	   -1.000000E+00	    1.645237E-03	    1.640000E-03	    7.900000E+02	    3.491004E-05	    1.147463E-03	    2.596661E+04	    1.572997E+05	
   -2.793360E-02	    1.839401E-03	    2.951210E-03	   -1.000000E+00	    1.647131E-03	    1.640000E-03	    7.900000E+02	    4.753671E-05	    1.304379E-03	    2.167712E+04	    1.573933E+05	
   -2.789560E-02	    2.327520E-03	    3.738303E-03	   -1.000000E+00	    1.649574E-03	    1.640000E-03	    7.900000E+02	    6.382833E-05	    1.468614E-03	    1.817696E+04	    1.574255E+05	
   -2.783829E-02	    2.916440E-03	    4.690043E-03	   -1.000000E+00	    1.652670E-03	    1.640000E-03	    7.900000E+02	    8.446993E-05	    1.638056E-03	    1.531982E+04	    1.574306E+05	
   -2.775370E-02	    3.616986E-03	    5.824842E-03	   -1.000000E+00	    1.656520E-03	    1.640000E-03	    7.900000E+02	    1.101349E-04	    1.810267E-03	    1.298509E+04	    1.573750E+05	
   -2.763162E-02	    4.438076E-03	    7.157641E-03	   -1.000000E+00	    1.661215E-03	    1.640000E-03	    7.900000E+02	    1.414356E-04	    1.982730E-03	    1.107470E+04	    1.571967E+05	
   -2.745956E-02	    5.385685E-03	    8.698144E-03	   -1.000000E+00	    1.666830E-03	    1.640000E-03	    7.900000E+02	    1.788656E-04	    2.153019E-03	    9.509290E+03	    1.568241E+05	
   -2.722289E-02	    6.461769E-03	    1.044901E-02	   -1.000000E+00	    1.673410E-03	    1.640000E-03	    7.900000E+02	    2.227354E-04	    2.318912E-03	    8.224738E+03	    1.561871E+05	
   -2.690538E-02	    7.663239E-03	    1.240425E-02	   -1.000000E+00	    1.680966E-03	    1.640000E-03	    7.900000E+02	    2.731087E-04	    2.478448E-03	    7.169210E+03	    1.552265E+05	
   -2.649013E-02	    8.981145E-03	    1.454796E-02	   -1.000000E+00	    1.689462E-03	    1.640000E-03	    7.900000E+02	    3.297479E-04	    2.629976E-03	    6.300815E+03	    1.539037E+05	
   -2.596091E-02	    1.040023E-02	    1.685389E-02	   -1.000000E+00	    1.698812E-03	    1.640000E-03	    7.900000E+02	    3.920781E-04	    2.772181E-03	    5.585680E+03	    1.522113E+05	
   -2.530372E-02	    1.189900E-02	    1.928575E-02	   -1.000000E+00	    1.708877E-03	    1.640000E-03	    7.900000E+02	    4.591791E-04	    2.904096E-03	    4.996387E+03	    1.501789E+05	
   -2.450856E-02	    1.345052E-02	    2.179868E-02	   -1.000000E+00	    1.719472E-03	    1.640000E-03	    7.900000E+02	    5.298142E-04	    3.025099E-03	    4.510691E+03	    1.478722E+05	
   -2.357095E-02	    1.502379E-02	    2.434174E-02	   -1.000000E+00	    1.730374E-03	    1.640000E-03	    7.900000E+02	    6.024954E-04	    3.134878E-03	    4.110494E+03	    1.453834E+05	
   -2.249301E-02	    1.658577E-02	    2.686131E-02	   -1.000000E+00	    1.741337E-03	    1.640000E-03	    7.900000E+02	    6.755818E-04	    3.233394E-03	    3.781010E+03	    1.428169E+05	
   -2.128390E-02	    1.810377E-02	    2.930485E-02	   -1.000000E+00	    1.752110E-03	    1.640000E-03	    7.900000E+02	    7.473999E-04	    3.320834E-03	    3.510114E+03	    1.402736E+05	
   -1.995938E-02	    1.954777E-02	    3.162468E-02	   -1.000000E+00	    1.762456E-03	    1.640000E-03	    7.900000E+02	    8.163705E-04	    3.397573E-03	    3.287824E+03	    1.378398E+05	
   -1.854062E-02	    2.089249E-02	    3.378105E-02	   -1.000000E+00	    1.772168E-03	    1.640000E-03	    7.900000E+02	    8.811224E-04	    3.464147E-03	    3.105898E+03	    1.355805E+05	
   -1.705253E-02	    2.211881E-02	    3.574429E-02	   -1.000000E+00	    1.781087E-03	    1.640000E-03	    7.900000E+02	    9.405787E-04	    3.521226E-03	    2.957507E+03	    1.335384E+05	
   -1.552172E-02	    2.321444E-02	    3.749568E-02	   -1.000000E+00	    1.789100E-03	    1.640000E-03	    7.900000E+02	    9.940024E-04	    3.569577E-03	    2.836981E+03	    1.317357E+05	
   -1.397455E-02	    2.417382E-02	    3.902727E-02	   -1.000000E+00	    1.796150E-03	    1.640000E-03	    7.900000E+02	    1.041003E-03	    3.610036E-03	    2.739597E+03	    1.301777E+05	
   -1.243554E-02	    2.499743E-02	    4.034060E-02	   -1.000000E+00	    1.802226E-03	    1.640000E-03	    7.900000E+02	    1.081507E-03	    3.643462E-03	    2.661412E+03	    1.288573E+05	
   -1.092611E-02	    2.569066E-02	    4.144493E-02	   -1.000000E+00	    1.807356E-03	    1.640000E-03	    7.900000E+02	    1.115704E-03	    3.670711E-03	    2.599133E+03	    1.277590E+05	
   -9.463925E-03	    2.626255E-02	    4.235517E-02	   -1.000000E+00	    1.811598E-03	    1.640000E-03	    7.900000E+02	    1.143983E-03	    3.692606E-03	    2.550001E+03	    1.268623E+05	
   -8.062680E-03	    2.672447E-02	    4.308985E-02	   -1.000000E+00	    1.815030E-03	    1.640000E-03	    7.900000E+02	    1.166869E-03	    3.709916E-03	    2.511707E+03	    1.261442E+05	
   -6.732193E-03	    2.708905E-02	    4.366930E-02	   -1.000000E+00	    1.817744E-03	    1.640000E-03	    7.900000E+02	    1.184957E-03	    3.723343E-03	    2.482319E+03	    1.255813E+05	
   -5.478794E-03	    2.736917E-02	    4.411425E-02	   -1.000000E+00	    1.819830E-03	    1.640000E-03	    7.900000E+02	    1.198870E-03	    3.733519E-03	    2.460217E+03	    1.251508E+05	
   -4.305828E-03	    2.757737E-02	    4.444473E-02	   -1.000000E+00	    1.821383E-03	    1.640000E-03	    7.900000E+02	    1.209217E-03	    3.740997E-03	    2.444051E+03	    1.248317E+05	
   -3.214208E-03	    2.772532E-02	    4.467941E-02	   -1.000000E+00	    1.822486E-03	    1.640000E-03	    7.900000E+02	    1.216573E-03	    3.746262E-03	    2.432692E+03	    1.246051E+05	
   -2.202962E-03	    2.782362E-02	    4.483514E-02	   -1.000000E+00	    1.823219E-03	    1.640000E-03	    7.900000E+02	    1.221459E-03	    3.749727E-03	    2.425201E+03	    1.244540E+05	
   -1.269713E-03	    2.788162E-02	    4.492679E-02	   -1.000000E+00	    1.823651E-03	    1.640000E-03	    7.900000E+02	    1.224339E-03	    3.751744E-03	    2.420798E+03	    1.243640E+05	
   -4.111053E-04	    2.790740E-02	    4.496721E-02	   -1.000000E+00	    1.823842E-03	    1.640000E-03	    7.900000E+02	    1.225615E-03	    3.752609E-03	    2.418835E+03	    1.243224E+05	
    4.111053E-04	    2.790740E-02	    4.496721E-02	   -1.000000E+00	    1.823842E-03	    1.640000E-03	    7.900000E+02	    1.225615E-03	    3.752609E-03	    2.418835E+03	    1.243224E+05	
    1.269713E-03	    2.788162E-02	    4.492679E-02	   -1.000000E+00	    1.823651E-03	    1.640000E-03	    7.900000E+02	    1.224339E-03	    3.751744E-03	    2.420798E+03	    1.243640E+05	
    2.202962E-03	    2.782362E-02	    4.483514E-02	   -1.000000E+00	    1.823219E-03	    1.640000E-03	    7.900000E+02	    1.221459E-03	    3.749727E-03	    2.425201E+03	    1.244540E+05	
    3.214208E-03	    2.772532E-02	    4.467941E-02	   -1.000000E+00	    1.822486E-03	    1.640000E-03	    7.900000E+02	    1.216573E-03	    3.746262E-03	    2.432692E+03	    1.246051E+05	
    4.305828E-03	    2.757737E-02	    4.444473E-02	   -1.000000E+00	    1.821383E-03	    1.640000E-03	    7.900000E+02	    1.209217E-03	    3.740998E-03	    2.444051E+03	    1.248317E+05	
    5.478794E-03	    2.736917E-02	    4.411425E-02	   -1.000000E+00	    1.819830E-03	    1.640000E-03	    7.900000E+02	    1.198870E-03	    3.733519E-03	    2.460217E+03	    1.251508E+05	
    6.732193E-03	    2.708905E-02	    4.366931E-02	   -1.000000E+00	    1.817744E-03	    1.640000E-03	    7.900000E+02	    1.184957E-03	    3.723344E-03	    2.482319E+03	    1.255813E+05	
    8.062680E-03	    2.672447E-02	    4.308986E-02	   -1.000000E+00	    1.815030E-03	    1.640000E-03	    7.900000E+02	    1.166869E-03	    3.709916E-03	    2.511707E+03	    1.261443E+05	
    9.463925E-03	    2.626255E-02	    4.235518E-02	   -1.000000E+00	    1.811598E-03	    1.640000E-03	    7.900000E+02	    1.143984E-03	    3.692606E-03	    2.550001E+03	    1.268624E+05	
    1.092611E-02	    2.569066E-02	    4.144493E-02	   -1.000000E+00	    1.807356E-03	    1.640000E-03	    7.900000E+02	    1.115704E-03	    3.670712E-03	    2.599133E+03	    1.277591E+05	
    1.243554E-02	    2.499743E-02	    4.034060E-02	   -1.000000E+00	    1.802226E-03	    1.640000E-03	    7.900000E+02	    1.081507E-03	    3.643462E-03	    2.661412E+03	    1.288573E+05	
    1.397455E-02	    2.417382E-02	    3.902728E-02	   -1.000000E+00	    1.796150E-03	    1.640000E-03	    7.900000E+02	    1.041003E-03	    3.610037E-03	    2.739597E+03	    1.301777E+05	
    1.552172E-02	    2.321444E-02	    3.749569E-02	   -1.000000E+00	    1.789100E-03	    1.640000E-03	    7.900000E+02	    9.940026E-04	    3.569579E-03	    2.836982E+03	    1.317358E+05	
    1.705253E-02	    2.211881E-02	    3.574430E-02	   -1.000000E+00	    1.781087E-03	    1.640000E-03	    7.900000E+02	    9.405788E-04	    3.521227E-03	    2.957508E+03	    1.335385E+05	
    1.854062E-02	    2.089249E-02	    3.378106E-02	   -1.000000E+00	    1.772168E-03	    1.640000E-03	    7.900000E+02	    8.811226E-04	    3.464148E-03	    3.105898E+03	    1.355806E+05	
    1.995938E-02	    1.954777E-02	    3.162469E-02	   -1.000000E+00	    1.762456E-03	    1.640000E-03	    7.900000E+02	    8.163706E-04	    3.397574E-03	    3.287825E+03	    1.378399E+05	
    2.128390E-02	    1.810377E-02	    2.930487E-02	   -1.000000E+00	    1.752110E-03	    1.640000E-03	    7.900000E+02	    7.474001E-04	    3.320836E-03	    3.510115E+03	    1.402737E+05	
    2.249301E-02	    1.658577E-02	    2.686132E-02	   -1.000000E+00	    1.741337E-03	    1.640000E-03	    7.900000E+02	    6.755820E-04	    3.233396E-03	    3.781011E+03	    1.428171E+05	
    2.357095E-02	    1.502379E-02	    2.434176E-02	   -1.000000E+00	    1.730374E-03	    1.640000E-03	    7.900000E+02	    6.024956E-04	    3.134880E-03	    4.110495E+03	    1.453836E+05	
    2.450856E-02	    1.345052E-02	    2.179869E-02	   -1.000000E+00	    1.719472E-03	    1.640000E-03	    7.900000E+02	    5.298144E-04	    3.025101E-03	    4.510693E+03	    1.478724E+05	
    2.530372E-02	    1.189900E-02	    1.928576E-02	   -1.000000E+00	    1.708877E-03	    1.640000E-03	    7.900000E+02	    4.591793E-04	    2.904099E-03	    4.996389E+03	    1.501791E+05	
    2.596091E-02	    1.040023E-02	    1.685391E-02	   -1.000000E+00	    1.698812E-03	    1.640000E-03	    7.900000E+02	    3.920783E-04	    2.772184E-03	    5.585683E+03	    1.522116E+05	
    2.649013E-02	    8.981145E-03	    1.454798E-02	   -1.000000E+00	    1.689462E-03	    1.640000E-03	    7.900000E+02	    3.297481E-04	    2.629979E-03	    6.300818E+03	    1.539040E+05	
    2.690538E-02	    7.663239E-03	    1.240426E-02	   -1.000000E+00	    1.680966E-03	    1.640000E-03	    7.900000E+02	    2.731089E-04	    2.478451E-03	    7.169215E+03	    1.552268E+05	
    2.722289E-02	    6.461769E-03	    1.044903E-02	   -1.000000E+00	    1.673410E-03	    1.640000E-03	    7.900000E+02	    2.227356E-04	    2.318915E-03	    8.224745E+03	    1.561875E+05	
    2.745956E-02	    5.385685E-03	    8.698158E-03	   -1.000000E+00	    1.666830E-03	    1.640000E-03	    7.900000E+02	    1.788658E-04	    2.153023E-03	    9.509299E+03	    1.568246E+05	
    2.763162E-02	    4.438076E-03	    7.157655E-03	   -1.000000E+00	    1.661215E-03	    1.640000E-03	    7.900000E+02	    1.414358E-04	    1.982734E-03	    1.107471E+04	    1.571974E+05	
    2.775370E-02	    3.616986E-03	    5.824856E-03	   -1.000000E+00	    1.656520E-03	    1.640000E-03	    7.900000E+02	    1.101350E-04	    1.810272E-03	    1.298511E+04	    1.573758E+05	
    2.783829E-02	    2.916440E-03	    4.690057E-03	   -1.000000E+00	    1.652671E-03	    1.640000E-03	    7.900000E+02	    8.447006E-05	    1.638061E-03	    1.531984E+04	    1.574315E+05	
    2.789560E-02	    2.327520E-03	    3.738317E-03	   -1.000000E+00	    1.649574E-03	    1.640000E-03	    7.900000E+02	    6.382844E-05	    1.468619E-03	    1.817699E+04	    1.574266E+05	
    2.793360E-02	    1.839401E-03	    2.951223E-03	   -1.000000E+00	    1.647131E-03	    1.640000E-03	    7.900000E+02	    4.753682E-05	    1.304384E-03	    2.167717E+04	    1.573947E+05	
    2.795830E-02	    1.440265E-03	    2.308468E-03	   -1.000000E+00	    1.645237E-03	    1.640000E-03	    7.900000E+02	    3.491013E-05	    1.147469E-03	    2.596668E+04	    1.573015E+05	
    2.797407E-02	    1.118070E-03	    1.789138E-03	   -1.000000E+00	    1.643794E-03	    1.640000E-03	    7.900000E+02	    2.529020E-05	    9.993325E-04	    3.121654E+04	    1.569633E+05	
    2.798398E-02	    8.611336E-04	    1.372681E-03	   -1.000000E+00	    1.642711E-03	    1.640000E-03	    7.900000E+02	    1.807355E-05	    8.604088E-04	    3.760872E+04	    1.558854E+05	
    2.799013E-02	    6.585706E-04	    1.039629E-03	   -1.000000E+00	    1.641909E-03	    1.640000E-03	    7.900000E+02	    1.272941E-05	    7.297661E-04	    4.529002E+04	    1.529767E+05	