Title="Fields"
Variables="X""Y""Velocity""Phi""Effective Viscosity""Dynamic Viscosity""Density""Eddy Viscosity""K""Epsilon""S"
Zone I=52 J=52 F=POINT
   -1.214864E-02	    6.022430E-05	    0.000000E+00	    0.000000E+00	    1.000000E-03	    1.000000E-03	    1.000000E+03	    0.000000E+00	    0.000000E+00	    0.000000E+00	    0.000000E+00	
   -1.214840E-02	    7.587059E-05	    0.000000E+00	    0.000000E+00	    1.000000E-03	    1.000000E-03	    1.000000E+03	    0.000000E+00	    0.000000E+00	    0.000000E+00	    0.000000E+00	
   -1.214760E-02	    1.201162E-04	    0.000000E+00	    0.000000E+00	    1.000000E-03	    1.000000E-03	    1.000000E+03	    0.000000E+00	    0.000000E+00	    0.000000E+00	    0.000000E+00	
   -1.214604E-02	    1.887791E-04	    0.000000E+00	    0.000000E+00	    1.000000E-03	    1.000000E-03	    1.000000E+03	    0.000000E+00	    0.000000E+00	    0.000000E+00	    0.000000E+00	
   -1.214292E-02	    2.931943E-04	    0.000000E+00	    0.000000E+00	    1.000000E-03	    1.000000E-03	    1.000000E+03	    0.000000E+00	    0.000000E+00	    0.000000E+00	    0.000000E+00	
   -1.213664E-02	    4.481479E-04	    0.000000E+00	    0.000000E+00	    1.000000E-03	    1.000000E-03	    1.000000E+03	    0.000000E+00	    0.000000E+00	    0.000000E+00	    0.000000E+00	
   -1.212408E-02	    6.717413E-04	    0.000000E+00	    0.000000E+00	    1.000000E-03	    1.000000E-03	    1.000000E+03	    0.000000E+00	    0.000000E+00	    0.000000E+00	    0.000000E+00	
   -1.209956E-02	    9.844691E-04	    0.000000E+00	    0.000000E+00	    1.000000E-03	    1.000000E-03	    1.000000E+03	    0.000000E+00	    0.000000E+00	    0.000000E+00	    0.000000E+00	
   -1.205344E-02	    1.407248E-03	    0.000000E+00	    0.000000E+00	    1.000000E-03	    1.000000E-03	    1.000000E+03	    0.000000E+00	    0.000000E+00	    0.000000E+00	    0.000000E+00	
   -1.197068E-02	    1.958259E-03	    0.000000E+00	    0.000000E+00	    1.000000E-03	    1.000000E-03	    1.000000E+03	    0.000000E+00	    0.000000E+00	    0.000000E+00	    0.000000E+00	
   -1.182998E-02	    2.648730E-03	    0.000000E+00	    0.000000E+00	    1.000000E-03	    1.000000E-03	    1.000000E+03	    0.000000E+00	    0.000000E+00	    0.000000E+00	    0.000000E+00	
   -1.160451E-02	    3.478208E-03	    0.000000E+00	    0.000000E+00	    1.000000E-03	    1.000000E-03	    1.000000E+03	    0.000000E+00	    0.000000E+00	    0.000000E+00	    0.000000E+00	
   -1.126508E-02	    4.430482E-03	    0.000000E+00	    0.000000E+00	    1.000000E-03	    1.000000E-03	    1.000000E+03	    0.000000E+00	    0.000000E+00	    0.000000E+00	    0.000000E+00	
   -1.078595E-02	    5.471869E-03	    0.000000E+00	    0.000000E+00	    1.000000E-03	    1.000000E-03	    1.000000E+03	    0.000000E+00	    0.000000E+00	    0.000000E+00	    0.000000E+00	
   -1.015216E-02	    6.553542E-03	    0.000000E+00	    0.000000E+00	    1.000000E-03	    1.000000E-03	    1.000000E+03	    0.000000E+00	    0.000000E+00	    0.000000E+00	    0.000000E+00	
   -9.365676E-03	    7.618437E-03	    0.000000E+00	    0.000000E+00	    1.000000E-03	    1.000000E-03	    1.000000E+03	    0.000000E+00	    0.000000E+00	    0.000000E+00	    0.000000E+00	
   -8.447592E-03	    8.611236E-03	    0.000000E+00	    0.000000E+00	    1.000000E-03	    1.000000E-03	    1.000000E+03	    0.000000E+00	    0.000000E+00	    0.000000E+00	    0.000000E+00	
   -7.434908E-03	    9.488112E-03	    0.000000E+00	    0.000000E+00	    1.000000E-03	    1.000000E-03	    1.000000E+03	    0.000000E+00	    0.000000E+00	    0.000000E+00	    0.000000E+00	
   -6.373132E-03	    1.022286E-02	    0.000000E+00	    0.000000E+00	    1.000000E-03	    1.000000E-03	    1.000000E+03	    0.000000E+00	    0.000000E+00	    0.000000E+00	    0.000000E+00	
   -5.307702E-03	    1.080785E-02	    0.000000E+00	    0.000000E+00	    1.000000E-03	    1.000000E-03	    1.000000E+03	    0.000000E+00	    0.000000E+00	    0.000000E+00	    0.000000E+00	
   -4.277189E-03	    1.125075E-02	    0.000000E+00	    0.000000E+00	    1.000000E-03	    1.000000E-03	    1.000000E+03	    0.000000E+00	    0.000000E+00	    0.000000E+00	    0.000000E+00	
   -3.309761E-03	    1.156901E-02	    0.000000E+00	    0.000000E+00	    1.000000E-03	    1.000000E-03	    1.000000E+03	    0.000000E+00	    0.000000E+00	    0.000000E+00	    0.000000E+00	
   -2.422724E-03	    1.178450E-02	    0.000000E+00	    0.000000E+00	    1.000000E-03	    1.000000E-03	    1.000000E+03	    0.000000E+00	    0.000000E+00	    0.000000E+00	    0.000000E+00	
   -1.624046E-03	    1.191947E-02	    0.000000E+00	    0.000000E+00	    1.000000E-03	    1.000000E-03	    1.000000E+03	    0.000000E+00	    0.000000E+00	    0.000000E+00	    0.000000E+00	
   -9.147101E-04	    1.199402E-02	    0.000000E+00	    0.000000E+00	    1.000000E-03	    1.000000E-03	    1.000000E+03	    0.000000E+00	    0.000000E+00	    0.000000E+00	    0.000000E+00	
   -2.910617E-04	    1.202501E-02	    0.000000E+00	    0.000000E+00	    1.000000E-03	    1.000000E-03	    1.000000E+03	    0.000000E+00	    0.000000E+00	    0.000000E+00	    0.000000E+00	
    2.910617E-04	    1.202501E-02	    0.000000E+00	    0.000000E+00	    1.000000E-03	    1.000000E-03	    1.000000E+03	    0.000000E+00	    0.000000E+00	    0.000000E+00	    0.000000E+00	
    9.147101E-04	    1.199402E-02	    0.000000E+00	    0.000000E+00	    1.000000E-03	    1.000000E-03	    1.000000E+03	    0.000000E+00	    0.000000E+00	    0.000000E+00	    0.000000E+00	
    1.624046E-03	    1.191947E-02	    0.000000E+00	    0.000000E+00	    1.000000E-03	    1.000000E-03	    1.000000E+03	    0.000000E+00	    0.000000E+00	    0.000000E+00	    0.000000E+00	
    2.422724E-03	    1.178450E-02	    0.000000E+00	    0.000000E+00	    1.000000E-03	    1.000000E-03	    1.000000E+03	    0.000000E+00	    0.000000E+00	    0.000000E+00	    0.000000E+00	
    3.309761E-03	    1.156901E-02	    0.000000E+00	    0.000000E+00	    1.000000E-03	    1.000000E-03	    1.000000E+03	    0.000000E+00	    0.000000E+00	    0.000000E+00	    0.000000E+00	
    4.277189E-03	    1.125075E-02	    0.000000E+00	    0.000000E+00	    1.000000E-03	    1.000000E-03	    1.000000E+03	    0.000000E+00	    0.000000E+00	    0.000000E+00	    0.000000E+00	
    5.307702E-03	    1.080785E-02	    0.000000E+00	    0.000000E+00	    1.000000E-03	    1.000000E-03	    1.000000E+03	    0.000000E+00	    0.000000E+00	    0.000000E+00	    0.000000E+00	
    6.373132E-03	    1.022286E-02	    0.000000E+00	    0.000000E+00	    1.000000E-03	    1.000000E-03	    1.000000E+03	    0.000000E+00	    0.000000E+00	    0.000000E+00	    0.000000E+00	
    7.434908E-03	    9.488112E-03	    0.000000E+00	    0.000000E+00	    1.000000E-03	    1.000000E-03	    1.000000E+03	    0.000000E+00	    0.000000E+00	    0.000000E+00	    0.000000E+00	
    8.447592E-03	    8.611236E-03	    0.000000E+00	    0.000000E+00	    1.000000E-03	    1.000000E-03	    1.000000E+03	    0.000000E+00	    0.000000E+00	    0.000000E+00	    0.000000E+00	
    9.365676E-03	    7.618437E-03	    0.000000E+00	    0.000000E+00	    1.000000E-03	    1.000000E-03	    1.000000E+03	    0.000000E+00	    0.000000E+00	    0.000000E+00	    0.000000E+00	
    1.015216E-02	    6.553542E-03	    0.000000E+00	    0.000000E+00	    1.000000E-03	    1.000000E-03	    1.000000E+03	    0.000000E+00	    0.000000E+00	    0.000000E+00	    0.000000E+00	
    1.078595E-02	    5.471869E-03	    0.000000E+00	    0.000000E+00	    1.000000E-03	    1.000000E-03	    1.000000E+03	    0.000000E+00	    0.000000E+00	    0.000000E+00	    0.000000E+00	
    1.126508E-02	    4.430482E-03	    0.000000E+00	    0.000000E+00	    1.000000E-03	    1.000000E-03	    1.000000E+03	    0.000000E+00	    0.000000E+00	    0.000000E+00	    0.000000E+00	
    1.160451E-02	    3.478208E-03	    0.000000E+00	    0.000000E+00	    1.000000E-03	    1.000000E-03	    1.000000E+03	    0.000000E+00	    0.000000E+00	    0.000000E+00	    0.000000E+00	
    1.182998E-02	    2.648730E-03	    0.000000E+00	    0.000000E+00	    1.000000E-03	    1.000000E-03	    1.000000E+03	    0.000000E+00	    0.000000E+00	    0.000000E+00	    0.000000E+00	
    1.197068E-02	    1.958259E-03	    0.000000E+00	    0.000000E+00	    1.000000E-03	    1.000000E-03	    1.000000E+03	    0.000000E+00	    0.000000E+00	    0.000000E+00	    0.000000E+00	
    1.205344E-02	    1.407248E-03	    0.000000E+00	    0.000000E+00	    1.000000E-03	    1.000000E-03	    1.000000E+03	    0.000000E+00	    0.000000E+00	    0.000000E+00	    0.000000E+00	
    1.209956E-02	    9.844691E-04	    0.000000E+00	    0.000000E+00	    1.000000E-03	    1.000000E-03	    1.000000E+03	    0.000000E+00	    0.000000E+00	    0.000000E+00	    0.000000E+00	
    1.212408E-02	    6.717413E-04	    0.000000E+00	    0.000000E+00	    1.000000E-03	    1.000000E-03	    1.000000E+03	    0.000000E+00	    0.000000E+00	    0.000000E+00	    0.000000E+00	
    1.213664E-02	    4.481479E-04	    0.000000E+00	    0.000000E+00	    1.000000E-03	    1.000000E-03	    1.000000E+03	    0.000000E+00	    0.000000E+00	    0.000000E+00	    0.000000E+00	
    1.214292E-02	    2.931943E-04	    0.000000E+00	    0.000000E+00	    1.000000E-03	    1.000000E-03	    1.000000E+03	    0.000000E+00	    0.000000E+00	    0.000000E+00	    0.000000E+00	
    1.214604E-02	    1.887791E-04	    0.000000E+00	    0.000000E+00	    1.000000E-03	    1.000000E-03	    1.000000E+03	    0.000000E+00	    0.000000E+00	    0.000000E+00	    0.000000E+00	
    1.214760E-02	    1.201162E-04	    0.000000E+00	    0.000000E+00	    1.000000E-03	    1.000000E-03	    1.000000E+03	    0.000000E+00	    0.000000E+00	    0.000000E+00	    0.000000E+00	
    1.214840E-02	    7.587059E-05	    0.000000E+00	    0.000000E+00	    1.000000E-03	    1.000000E-03	    1.000000E+03	    0.000000E+00	    0.000000E+00	    0.000000E+00	    0.000000E+00	
    1.214864E-02	    6.022430E-05	    0.000000E+00	    0.000000E+00	    1.000000E-03	    1.000000E-03	    1.000000E+03	    0.000000E+00	    0.000000E+00	    0.000000E+00	    0.000000E+00	
   -1.214823E-02	    6.021683E-05	    0.000000E+00	    0.000000E+00	    1.000000E-03	    1.000000E-03	    1.000000E+03	    0.000000E+00	    0.000000E+00	    0.000000E+00	    0.000000E+00	
   -1.214788E-02	    7.586052E-05	    1.522318E-04	   -1.000000E+00	    1.000888E-03	    1.000000E-03	    1.000000E+03	    4.037992E-06	    1.228520E-03	    3.363888E+01	    8.703389E+04	
   -1.214679E-02	    1.200973E-04	    4.721451E-04	   -1.000000E+00	    1.000994E-03	    1.000000E-03	    1.000000E+03	    4.519207E-06	    6.139465E-04	    7.506567E+00	    3.375148E+05	
   -1.214476E-02	    1.887422E-04	    9.019007E-04	   -1.000000E+00	    1.001827E-03	    1.000000E-03	    1.000000E+03	    8.304119E-06	    8.392760E-04	    7.634112E+00	    4.981430E+05	
   -1.214094E-02	    2.931200E-04	    1.507687E-03	   -1.000000E+00	    1.003311E-03	    1.000000E-03	    1.000000E+03	    1.505209E-05	    1.143230E-03	    7.814703E+00	    5.761468E+05	
   -1.213361E-02	    4.479957E-04	    2.362549E-03	   -1.000000E+00	    1.005689E-03	    1.000000E-03	    1.000000E+03	    2.585850E-05	    1.444282E-03	    7.260108E+00	    6.038508E+05	
   -1.211955E-02	    6.714295E-04	    3.560380E-03	   -1.000000E+00	    1.009357E-03	    1.000000E-03	    1.000000E+03	    4.253140E-05	    1.739232E-03	    6.400999E+00	    6.075602E+05	
   -1.209293E-02	    9.838410E-04	    5.207020E-03	   -1.000000E+00	    1.014792E-03	    1.000000E-03	    1.000000E+03	    6.723451E-05	    2.023942E-03	    5.483356E+00	    6.004017E+05	
   -1.204401E-02	    1.406019E-03	    7.406759E-03	   -1.000000E+00	    1.022491E-03	    1.000000E-03	    1.000000E+03	    1.022338E-04	    2.290700E-03	    4.619387E+00	    5.870561E+05	
   -1.195765E-02	    1.955950E-03	    1.024546E-02	   -1.000000E+00	    1.032904E-03	    1.000000E-03	    1.000000E+03	    1.495623E-04	    2.532544E-03	    3.859530E+00	    5.684068E+05	
   -1.181256E-02	    2.644593E-03	    1.377026E-02	   -1.000000E+00	    1.046335E-03	    1.000000E-03	    1.000000E+03	    2.106158E-04	    2.746161E-03	    3.222580E+00	    5.444979E+05	
   -1.158209E-02	    3.471175E-03	    1.796875E-02	   -1.000000E+00	    1.062862E-03	    1.000000E-03	    1.000000E+03	    2.857362E-04	    2.932507E-03	    2.708665E+00	    5.164067E+05	
   -1.123737E-02	    4.419185E-03	    2.275113E-02	   -1.000000E+00	    1.082228E-03	    1.000000E-03	    1.000000E+03	    3.737646E-04	    3.094167E-03	    2.305324E+00	    4.864580E+05	
   -1.075321E-02	    5.454763E-03	    2.794424E-02	   -1.000000E+00	    1.103777E-03	    1.000000E-03	    1.000000E+03	    4.717144E-04	    3.232863E-03	    1.994059E+00	    4.572517E+05	
   -1.011527E-02	    6.529136E-03	    3.330451E-02	   -1.000000E+00	    1.126474E-03	    1.000000E-03	    1.000000E+03	    5.748801E-04	    3.349373E-03	    1.756273E+00	    4.307634E+05	
   -9.326135E-03	    7.585587E-03	    3.855213E-02	   -1.000000E+00	    1.149054E-03	    1.000000E-03	    1.000000E+03	    6.775170E-04	    3.444498E-03	    1.576065E+00	    4.080668E+05	
   -8.407302E-03	    8.569391E-03	    4.341970E-02	   -1.000000E+00	    1.170261E-03	    1.000000E-03	    1.000000E+03	    7.739150E-04	    3.519749E-03	    1.440697E+00	    3.894735E+05	
   -7.395856E-03	    9.437422E-03	    4.769911E-02	   -1.000000E+00	    1.189084E-03	    1.000000E-03	    1.000000E+03	    8.594723E-04	    3.577431E-03	    1.340149E+00	    3.747959E+05	
   -6.337080E-03	    1.016411E-02	    5.127013E-02	   -1.000000E+00	    1.204903E-03	    1.000000E-03	    1.000000E+03	    9.313756E-04	    3.620336E-03	    1.266530E+00	    3.635806E+05	
   -5.275969E-03	    1.074227E-02	    5.410319E-02	   -1.000000E+00	    1.217519E-03	    1.000000E-03	    1.000000E+03	    9.887210E-04	    3.651343E-03	    1.213596E+00	    3.552713E+05	
   -4.250575E-03	    1.117974E-02	    5.624161E-02	   -1.000000E+00	    1.227078E-03	    1.000000E-03	    1.000000E+03	    1.032173E-03	    3.673096E-03	    1.176399E+00	    3.493085E+05	
   -3.288589E-03	    1.149396E-02	    5.777430E-02	   -1.000000E+00	    1.233949E-03	    1.000000E-03	    1.000000E+03	    1.063405E-03	    3.687842E-03	    1.151035E+00	    3.451819E+05	
   -2.406939E-03	    1.170666E-02	    5.880977E-02	   -1.000000E+00	    1.238601E-03	    1.000000E-03	    1.000000E+03	    1.084550E-03	    3.697395E-03	    1.134447E+00	    3.424542E+05	
   -1.613344E-03	    1.183985E-02	    5.945674E-02	   -1.000000E+00	    1.241513E-03	    1.000000E-03	    1.000000E+03	    1.097787E-03	    3.703167E-03	    1.124271E+00	    3.407661E+05	
   -9.086451E-04	    1.191341E-02	    5.981276E-02	   -1.000000E+00	    1.243119E-03	    1.000000E-03	    1.000000E+03	    1.105088E-03	    3.706235E-03	    1.118695E+00	    3.398316E+05	
   -2.891269E-04	    1.194400E-02	    5.995905E-02	   -1.000000E+00	    1.243784E-03	    1.000000E-03	    1.000000E+03	    1.108108E-03	    3.707403E-03	    1.116349E+00	    3.394279E+05	
    2.891269E-04	    1.194400E-02	    5.995905E-02	   -1.000000E+00	    1.243784E-03	    1.000000E-03	    1.000000E+03	    1.108108E-03	    3.707403E-03	    1.116349E+00	    3.394279E+05	
    9.086451E-04	    1.191341E-02	    5.981276E-02	   -1.000000E+00	    1.243119E-03	    1.000000E-03	    1.000000E+03	    1.105088E-03	    3.706235E-03	    1.118695E+00	    3.398316E+05	
    1.613344E-03	    1.183985E-02	    5.945674E-02	   -1.000000E+00	    1.241513E-03	    1.000000E-03	    1.000000E+03	    1.097787E-03	    3.703167E-03	    1.124271E+00	    3.407661E+05	
    2.406939E-03	    1.170666E-02	    5.880977E-02	   -1.000000E+00	    1.238601E-03	    1.000000E-03	    1.000000E+03	    1.084550E-03	    3.697395E-03	    1.134447E+00	    3.424542E+05	
    3.288589E-03	    1.149396E-02	    5.777430E-02	   -1.000000E+00	    1.233949E-03	    1.000000E-03	    1.000000E+03	    1.063405E-03	    3.687842E-03	    1.151035E+00	    3.451819E+05	
    4.250575E-03	    1.117974E-02	    5.624161E-02	   -1.000000E+00	    1.227078E-03	    1.000000E-03	    1.000000E+03	    1.032173E-03	    3.673096E-03	    1.176399E+00	    3.493085E+05	
    5.275969E-03	    1.074227E-02	    5.410319E-02	   -1.000000E+00	    1.217519E-03	    1.000000E-03	    1.000000E+03	    9.887210E-04	    3.651343E-03	    1.213596E+00	    3.552713E+05	
    6.337080E-03	    1.016411E-02	    5.127013E-02	   -1.000000E+00	    1.204903E-03	    1.000000E-03	    1.000000E+03	    9.313756E-04	    3.620336E-03	    1.266530E+00	    3.635806E+05	
    7.395856E-03	    9.437422E-03	    4.769911E-02	   -1.000000E+00	    1.189084E-03	    1.000000E-03	    1.000000E+03	    8.594723E-04	    3.577431E-03	    1.340149E+00	    3.747959E+05	
    8.407302E-03	    8.569391E-03	    4.341970E-02	   -1.000000E+00	    1.170261E-03	    1.000000E-03	    1.000000E+03	    7.739150E-04	    3.519749E-03	    1.440697E+00	    3.894735E+05	
    9.326135E-03	    7.585587E-03	    3.855213E-02	   -1.000000E+00	    1.149054E-03	    1.000000E-03	    1.000000E+03	    6.775170E-04	    3.444498E-03	    1.576065E+00	    4.080668E+05	
    1.011527E-02	    6.529136E-03	    3.330451E-02	   -1.000000E+00	    1.126474E-03	    1.000000E-03	    1.000000E+03	    5.748801E-04	    3.349373E-03	    1.756273E+00	    4.307634E+05	
    1.075321E-02	    5.454763E-03	    2.794424E-02	   -1.000000E+00	    1.103777E-03	    1.000000E-03	    1.000000E+03	    4.717144E-04	    3.232863E-03	    1.994059E+00	    4.572517E+05	
    1.123737E-02	    4.419185E-03	    2.275113E-02	   -1.000000E+00	    1.082228E-03	    1.000000E-03	    1.000000E+03	    3.737646E-04	    3.094167E-03	    2.305324E+00	    4.864580E+05	
    1.158209E-02	    3.471175E-03	    1.796875E-02	   -1.000000E+00	    1.062862E-03	    1.000000E-03	    1.000000E+03	    2.857362E-04	    2.932507E-03	    2.708665E+00	    5.164067E+05	
    1.181256E-02	    2.644593E-03	    1.377026E-02	   -1.000000E+00	    1.046335E-03	    1.000000E-03	    1.000000E+03	    2.106158E-04	    2.746161E-03	    3.222580E+00	    5.444979E+05	
    1.195765E-02	    1.955950E-03	    1.024546E-02	   -1.000000E+00	    1.032904E-03	    1.000000E-03	    1.000000E+03	    1.495623E-04	    2.532544E-03	    3.859530E+00	    5.684068E+05	
    1.204401E-02	    1.406019E-03	    7.406759E-03	   -1.000000E+00	    1.022491E-03	    1.000000E-03	    1.000000E+03	    1.022338E-04	    2.290700E-03	    4.619387E+00	    5.870561E+05	
    1.209293E-02	    9.838410E-04	    5.207020E-03	   -1.000000E+00	    1.014792E-03	    1.000000E-03	    1.000000E+03	    6.723451E-05	    2.023942E-03	    5.483356E+00	    6.004017E+05	
    1.211955E-02	    6.714295E-04	    3.560380E-03	   -1.000000E+00	    1.009357E-03	    1.000000E-03	    1.000000E+03	    4.253140E-05	    1.739232E-03	    6.400999E+00	    6.075602E+05	
    1.213361E-02	    4.479957E-04	    2.362549E-03	   -1.000000E+00	    1.005689E-03	    1.000000E-03	    1.000000E+03	    2.585850E-05	    1.444282E-03	    7.260108E+00	    6.038508E+05	
    1.214094E-02	    2.931200E-04	    1.507687E-03	   -1.000000E+00	    1.003311E-03	    1.000000E-03	    1.000000E+03	    1.505209E-05	    1.143230E-03	    7.814703E+00	    5.761468E+05	
    1.214476E-02	    1.887422E-04	    9.019007E-04	   -1.000000E+00	    1.001827E-03	    1.000000E-03	    1.000000E+03	    8.304119E-06	    8.392760E-04	    7.634112E+00	    4.981430E+05	
    1.214679E-02	    1.200973E-04	    4.721451E-04	   -1.000000E+00	    1.000994E-03	    1.000000E-03	    1.000000E+03	    4.519207E-06	    6.139465E-04	    7.506567E+00	    3.375148E+05	
    1.214788E-02	    7.586052E-05	    1.522318E-04	   -1.000000E+00	    1.000888E-03	    1.000000E-03	    1.000000E+03	    4.037992E-06	    1.228520E-03	    3.363888E+01	    8.703389E+04	
    1.214823E-02	    6.021683E-05	    0.000000E+00	    0.000000E+00	    1.000000E-03	    1.000000E-03	    1.000000E+03	    0.000000E+00	    0.000000E+00	    0.000000E+00	    0.000000E+00	
   -1.214729E-02	    6.018900E-05	    0.000000E+00	    0.000000E+00	    1.000000E-03	    1.000000E-03	    1.000000E+03	    0.000000E+00	    0.000000E+00	    0.000000E+00	    0.000000E+00	
   -1.214670E-02	    7.582392E-05	    5.001220E-04	   -1.000000E+00	    1.027183E-03	    1.000000E-03	    1.000000E+03	    1.235607E-04	    1.236666E-03	    1.113954E+00	    8.542355E+04	
   -1.214491E-02	    1.200325E-04	    1.563249E-03	   -1.000000E+00	    1.001061E-03	    1.000000E-03	    1.000000E+03	    4.824401E-06	    5.639077E-04	    5.932192E+00	    3.372499E+05	
   -1.214181E-02	    1.886237E-04	    2.984198E-03	   -1.000000E+00	    1.001927E-03	    1.000000E-03	    1.000000E+03	    8.760553E-06	    7.360772E-04	    5.566186E+00	    4.969525E+05	
   -1.213636E-02	    2.928967E-04	    4.982480E-03	   -1.000000E+00	    1.003627E-03	    1.000000E-03	    1.000000E+03	    1.648588E-05	    9.728427E-04	    5.166729E+00	    5.733769E+05	
   -1.212662E-02	    4.475651E-04	    7.791451E-03	   -1.000000E+00	    1.006657E-03	    1.000000E-03	    1.000000E+03	    3.025786E-05	    1.204305E-03	    4.313974E+00	    5.981245E+05	
   -1.210908E-02	    6.705914E-04	    1.170181E-02	   -1.000000E+00	    1.012163E-03	    1.000000E-03	    1.000000E+03	    5.528809E-05	    1.446310E-03	    3.405128E+00	    5.958368E+05	
   -1.207763E-02	    9.822180E-04	    1.701788E-02	   -1.000000E+00	    1.022426E-03	    1.000000E-03	    1.000000E+03	    1.019358E-04	    1.724317E-03	    2.625126E+00	    5.763203E+05	
   -1.202224E-02	    1.402938E-03	    2.398489E-02	   -1.000000E+00	    1.041707E-03	    1.000000E-03	    1.000000E+03	    1.895753E-04	    2.064980E-03	    2.024381E+00	    5.403571E+05	
   -1.192760E-02	    1.950285E-03	    3.269152E-02	   -1.000000E+00	    1.076706E-03	    1.000000E-03	    1.000000E+03	    3.486636E-04	    2.484601E-03	    1.593489E+00	    4.888173E+05	
   -1.177247E-02	    2.634602E-03	    4.298303E-02	   -1.000000E+00	    1.134842E-03	    1.000000E-03	    1.000000E+03	    6.129190E-04	    2.973858E-03	    1.298614E+00	    4.274755E+05	
   -1.153055E-02	    3.454397E-03	    5.446076E-02	   -1.000000E+00	    1.220230E-03	    1.000000E-03	    1.000000E+03	    1.001048E-03	    3.498787E-03	    1.100583E+00	    3.646297E+05	
   -1.117378E-02	    4.392487E-03	    6.657348E-02	   -1.000000E+00	    1.331148E-03	    1.000000E-03	    1.000000E+03	    1.505218E-03	    4.019520E-03	    9.660318E-01	    3.070743E+05	
   -1.067819E-02	    5.414629E-03	    7.872583E-02	   -1.000000E+00	    1.461007E-03	    1.000000E-03	    1.000000E+03	    2.095484E-03	    4.504743E-03	    8.715619E-01	    2.583734E+05	
   -1.003092E-02	    6.472204E-03	    9.035825E-02	   -1.000000E+00	    1.600641E-03	    1.000000E-03	    1.000000E+03	    2.730185E-03	    4.934601E-03	    8.027024E-01	    2.193368E+05	
   -9.235913E-03	    7.509312E-03	    1.010037E-01	   -1.000000E+00	    1.740290E-03	    1.000000E-03	    1.000000E+03	    3.364954E-03	    5.299103E-03	    7.510488E-01	    1.891928E+05	
   -8.315535E-03	    8.472593E-03	    1.103286E-01	   -1.000000E+00	    1.871205E-03	    1.000000E-03	    1.000000E+03	    3.960021E-03	    5.596192E-03	    7.117545E-01	    1.665312E+05	
   -7.307050E-03	    9.320514E-03	    1.181537E-01	   -1.000000E+00	    1.986861E-03	    1.000000E-03	    1.000000E+03	    4.485730E-03	    5.829720E-03	    6.818750E-01	    1.498455E+05	
   -6.255204E-03	    1.002892E-02	    1.244497E-01	   -1.000000E+00	    2.083556E-03	    1.000000E-03	    1.000000E+03	    4.925256E-03	    6.007241E-03	    6.594226E-01	    1.377814E+05	
   -5.203978E-03	    1.059161E-02	    1.293085E-01	   -1.000000E+00	    2.160311E-03	    1.000000E-03	    1.000000E+03	    5.274139E-03	    6.137940E-03	    6.428892E-01	    1.292181E+05	
   -4.190247E-03	    1.101682E-02	    1.329025E-01	   -1.000000E+00	    2.218244E-03	    1.000000E-03	    1.000000E+03	    5.537474E-03	    6.231072E-03	    6.310393E-01	    1.232688E+05	
   -3.240621E-03	    1.132195E-02	    1.354417E-01	   -1.000000E+00	    2.259764E-03	    1.000000E-03	    1.000000E+03	    5.726198E-03	    6.295032E-03	    6.228336E-01	    1.192491E+05	
   -2.371191E-03	    1.152836E-02	    1.371403E-01	   -1.000000E+00	    2.287816E-03	    1.000000E-03	    1.000000E+03	    5.853707E-03	    6.336934E-03	    6.174047E-01	    1.166386E+05	
   -1.589115E-03	    1.165755E-02	    1.381946E-01	   -1.000000E+00	    2.305352E-03	    1.000000E-03	    1.000000E+03	    5.933419E-03	    6.362545E-03	    6.140436E-01	    1.150456E+05	
   -8.949153E-04	    1.172889E-02	    1.387722E-01	   -1.000000E+00	    2.315018E-03	    1.000000E-03	    1.000000E+03	    5.977355E-03	    6.376389E-03	    6.121856E-01	    1.141767E+05	
   -2.847470E-04	    1.175854E-02	    1.390085E-01	   -1.000000E+00	    2.319013E-03	    1.000000E-03	    1.000000E+03	    5.995515E-03	    6.381939E-03	    6.113942E-01	    1.138141E+05	
    2.847470E-04	    1.175854E-02	    1.390085E-01	   -1.000000E+00	    2.319013E-03	    1.000000E-03	    1.000000E+03	    5.995515E-03	    6.381939E-03	    6.113942E-01	    1.138141E+05	
    8.949153E-04	    1.172889E-02	    1.387722E-01	   -1.000000E+00	    2.315018E-03	    1.000000E-03	    1.000000E+03	    5.977355E-03	    6.376389E-03	    6.121856E-01	    1.141767E+05	
    1.589115E-03	    1.165755E-02	    1.381946E-01	   -1.000000E+00	    2.305352E-03	    1.000000E-03	    1.000000E+03	    5.933419E-03	    6.362545E-03	    6.140436E-01	    1.150456E+05	
    2.371191E-03	    1.152836E-02	    1.371403E-01	   -1.000000E+00	    2.287816E-03	    1.000000E-03	    1.000000E+03	    5.853707E-03	    6.336934E-03	    6.174047E-01	    1.166386E+05	
    3.240621E-03	    1.132195E-02	    1.354417E-01	   -1.000000E+00	    2.259764E-03	    1.000000E-03	    1.000000E+03	    5.726198E-03	    6.295032E-03	    6.228336E-01	    1.192491E+05	
    4.190247E-03	    1.101682E-02	    1.329025E-01	   -1.000000E+00	    2.218244E-03	    1.000000E-03	    1.000000E+03	    5.537474E-03	    6.231072E-03	    6.310393E-01	    1.232688E+05	
    5.203978E-03	    1.059161E-02	    1.293085E-01	   -1.000000E+00	    2.160311E-03	    1.000000E-03	    1.000000E+03	    5.274139E-03	    6.137940E-03	    6.428892E-01	    1.292181E+05	
    6.255204E-03	    1.002892E-02	    1.244497E-01	   -1.000000E+00	    2.083556E-03	    1.000000E-03	    1.000000E+03	    4.925256E-03	    6.007241E-03	    6.594226E-01	    1.377814E+05	
    7.307050E-03	    9.320514E-03	    1.181537E-01	   -1.000000E+00	    1.986861E-03	    1.000000E-03	    1.000000E+03	    4.485730E-03	    5.829720E-03	    6.818750E-01	    1.498455E+05	
    8.315535E-03	    8.472593E-03	    1.103286E-01	   -1.000000E+00	    1.871205E-03	    1.000000E-03	    1.000000E+03	    3.960021E-03	    5.596192E-03	    7.117545E-01	    1.665312E+05	
    9.235913E-03	    7.509312E-03	    1.010037E-01	   -1.000000E+00	    1.740290E-03	    1.000000E-03	    1.000000E+03	    3.364954E-03	    5.299103E-03	    7.510488E-01	    1.891928E+05	
    1.003092E-02	    6.472204E-03	    9.035825E-02	   -1.000000E+00	    1.600641E-03	    1.000000E-03	    1.000000E+03	    2.730185E-03	    4.934601E-03	    8.027024E-01	    2.193368E+05	
    1.067819E-02	    5.414629E-03	    7.872583E-02	   -1.000000E+00	    1.461007E-03	    1.000000E-03	    1.000000E+03	    2.095484E-03	    4.504743E-03	    8.715619E-01	    2.583734E+05	
    1.117378E-02	    4.392487E-03	    6.657348E-02	   -1.000000E+00	    1.331148E-03	    1.000000E-03	    1.000000E+03	    1.505218E-03	    4.019520E-03	    9.660318E-01	    3.070743E+05	
    1.153055E-02	    3.454397E-03	    5.446076E-02	   -1.000000E+00	    1.220230E-03	    1.000000E-03	    1.000000E+03	    1.001048E-03	    3.498787E-03	    1.100583E+00	    3.646297E+05	
    1.177247E-02	    2.634602E-03	    4.298303E-02	   -1.000000E+00	    1.134842E-03	    1.000000E-03	    1.000000E+03	    6.129190E-04	    2.973858E-03	    1.298614E+00	    4.274755E+05	
    1.192760E-02	    1.950285E-03	    3.269152E-02	   -1.000000E+00	    1.076706E-03	    1.000000E-03	    1.000000E+03	    3.486636E-04	    2.484601E-03	    1.593489E+00	    4.888173E+05	
    1.202224E-02	    1.402938E-03	    2.398489E-02	   -1.000000E+00	    1.041707E-03	    1.000000E-03	    1.000000E+03	    1.895753E-04	    2.064980E-03	    2.024381E+00	    5.403571E+05	
    1.207763E-02	    9.822180E-04	    1.701788E-02	   -1.000000E+00	    1.022426E-03	    1.000000E-03	    1.000000E+03	    1.019358E-04	    1.724317E-03	    2.625126E+00	    5.763203E+05	
    1.210908E-02	    6.705914E-04	    1.170181E-02	   -1.000000E+00	    1.012163E-03	    1.000000E-03	    1.000000E+03	    5.528809E-05	    1.446310E-03	    3.405128E+00	    5.958368E+05	
    1.212662E-02	    4.475651E-04	    7.791451E-03	   -1.000000E+00	    1.006657E-03	    1.000000E-03	    1.000000E+03	    3.025786E-05	    1.204305E-03	    4.313974E+00	    5.981245E+05	
    1.213636E-02	    2.928967E-04	    4.982480E-03	   -1.000000E+00	    1.003627E-03	    1.000000E-03	    1.000000E+03	    1.648588E-05	    9.728427E-04	    5.166729E+00	    5.733769E+05	
    1.214181E-02	    1.886237E-04	    2.984198E-03	   -1.000000E+00	    1.001927E-03	    1.000000E-03	    1.000000E+03	    8.760553E-06	    7.360772E-04	    5.566186E+00	    4.969525E+05	
    1.214491E-02	    1.200325E-04	    1.563249E-03	   -1.000000E+00	    1.001061E-03	    1.000000E-03	    1.000000E+03	    4.824401E-06	    5.639077E-04	    5.932192E+00	    3.372499E+05	
    1.214670E-02	    7.582392E-05	    5.001220E-04	   -1.000000E+00	    1.027183E-03	    1.000000E-03	    1.000000E+03	    1.235607E-04	    1.236666E-03	    1.113954E+00	    8.542355E+04	
    1.214729E-02	    6.018900E-05	    0.000000E+00	    0.000000E+00	    1.000000E-03	    1.000000E-03	    1.000000E+03	    0.000000E+00	    0.000000E+00	    0.000000E+00	    0.000000E+00	
   -1.214606E-02	    6.013027E-05	    0.000000E+00	    0.000000E+00	    1.000000E-03	    1.000000E-03	    1.000000E+03	    0.000000E+00	    0.000000E+00	    0.000000E+00	    0.000000E+00	
   -1.214514E-02	    7.574794E-05	    9.486755E-04	   -1.000000E+00	    1.027323E-03	    1.000000E-03	    1.000000E+03	    1.241949E-04	    1.249680E-03	    1.131713E+00	    8.628876E+04	