Title="Fields"
Variables="X""Y""Velocity""Phi""Effective Viscosity""Dynamic Viscosity""Density"
Zone I=52 J=52 F=POINT
   -2.673387E-02	    1.263532E-04	    0.000000E+00	    0.000000E+00	    1.000000E-03	    1.000000E-03	    1.000000E+03	
   -2.674409E-02	    1.592439E-04	    0.000000E+00	    0.000000E+00	    1.000000E-03	    1.000000E-03	    1.000000E+03	
   -2.677279E-02	    2.523976E-04	    0.000000E+00	    0.000000E+00	    1.000000E-03	    1.000000E-03	    1.000000E+03	
   -2.681676E-02	    3.973801E-04	    0.000000E+00	    0.000000E+00	    1.000000E-03	    1.000000E-03	    1.000000E+03	
   -2.688228E-02	    6.188408E-04	    0.000000E+00	    0.000000E+00	    1.000000E-03	    1.000000E-03	    1.000000E+03	
   -2.697647E-02	    9.497048E-04	    0.000000E+00	    0.000000E+00	    1.000000E-03	    1.000000E-03	    1.000000E+03	
   -2.710592E-02	    1.431852E-03	    0.000000E+00	    0.000000E+00	    1.000000E-03	    1.000000E-03	    1.000000E+03	
   -2.727387E-02	    2.115728E-03	    0.000000E+00	    0.000000E+00	    1.000000E-03	    1.000000E-03	    1.000000E+03	
   -2.747579E-02	    3.058371E-03	    0.000000E+00	    0.000000E+00	    1.000000E-03	    1.000000E-03	    1.000000E+03	
   -2.769347E-02	    4.319260E-03	    0.000000E+00	    0.000000E+00	    1.000000E-03	    1.000000E-03	    1.000000E+03	
   -2.788837E-02	    5.953297E-03	    0.000000E+00	    0.000000E+00	    1.000000E-03	    1.000000E-03	    1.000000E+03	
   -2.799637E-02	    8.000389E-03	    0.000000E+00	    0.000000E+00	    1.000000E-03	    1.000000E-03	    1.000000E+03	
   -2.792699E-02	    1.047180E-02	    0.000000E+00	    0.000000E+00	    1.000000E-03	    1.000000E-03	    1.000000E+03	
   -2.757069E-02	    1.333538E-02	    0.000000E+00	    0.000000E+00	    1.000000E-03	    1.000000E-03	    1.000000E+03	
   -2.681679E-02	    1.650460E-02	    0.000000E+00	    0.000000E+00	    1.000000E-03	    1.000000E-03	    1.000000E+03	
   -2.557986E-02	    1.983834E-02	    0.000000E+00	    0.000000E+00	    1.000000E-03	    1.000000E-03	    1.000000E+03	
   -2.382711E-02	    2.315712E-02	    0.000000E+00	    0.000000E+00	    1.000000E-03	    1.000000E-03	    1.000000E+03	
   -2.159468E-02	    2.627432E-02	    0.000000E+00	    0.000000E+00	    1.000000E-03	    1.000000E-03	    1.000000E+03	
   -1.898403E-02	    2.903274E-02	    0.000000E+00	    0.000000E+00	    1.000000E-03	    1.000000E-03	    1.000000E+03	
   -1.613890E-02	    3.133194E-02	    0.000000E+00	    0.000000E+00	    1.000000E-03	    1.000000E-03	    1.000000E+03	
   -1.321333E-02	    3.313722E-02	    0.000000E+00	    0.000000E+00	    1.000000E-03	    1.000000E-03	    1.000000E+03	
   -1.034350E-02	    3.447049E-02	    0.000000E+00	    0.000000E+00	    1.000000E-03	    1.000000E-03	    1.000000E+03	
   -7.631414E-03	    3.539100E-02	    0.000000E+00	    0.000000E+00	    1.000000E-03	    1.000000E-03	    1.000000E+03	
   -5.141166E-03	    3.597500E-02	    0.000000E+00	    0.000000E+00	    1.000000E-03	    1.000000E-03	    1.000000E+03	
   -2.903660E-03	    3.630007E-02	    0.000000E+00	    0.000000E+00	    1.000000E-03	    1.000000E-03	    1.000000E+03	
   -9.250107E-04	    3.643575E-02	    0.000000E+00	    0.000000E+00	    1.000000E-03	    1.000000E-03	    1.000000E+03	
    9.250107E-04	    3.643575E-02	    0.000000E+00	    0.000000E+00	    1.000000E-03	    1.000000E-03	    1.000000E+03	
    2.903660E-03	    3.630007E-02	    0.000000E+00	    0.000000E+00	    1.000000E-03	    1.000000E-03	    1.000000E+03	
    5.141166E-03	    3.597500E-02	    0.000000E+00	    0.000000E+00	    1.000000E-03	    1.000000E-03	    1.000000E+03	
    7.631414E-03	    3.539100E-02	    0.000000E+00	    0.000000E+00	    1.000000E-03	    1.000000E-03	    1.000000E+03	
    1.034350E-02	    3.447049E-02	    0.000000E+00	    0.000000E+00	    1.000000E-03	    1.000000E-03	    1.000000E+03	
    1.321333E-02	    3.313722E-02	    0.000000E+00	    0.000000E+00	    1.000000E-03	    1.000000E-03	    1.000000E+03	
    1.613890E-02	    3.133194E-02	    0.000000E+00	    0.000000E+00	    1.000000E-03	    1.000000E-03	    1.000000E+03	
    1.898403E-02	    2.903274E-02	    0.000000E+00	    0.000000E+00	    1.000000E-03	    1.000000E-03	    1.000000E+03	
    2.159468E-02	    2.627432E-02	    0.000000E+00	    0.000000E+00	    1.000000E-03	    1.000000E-03	    1.000000E+03	
    2.382711E-02	    2.315712E-02	    0.000000E+00	    0.000000E+00	    1.000000E-03	    1.000000E-03	    1.000000E+03	
    2.557986E-02	    1.983834E-02	    0.000000E+00	    0.000000E+00	    1.000000E-03	    1.000000E-03	    1.000000E+03	
    2.681679E-02	    1.650460E-02	    0.000000E+00	    0.000000E+00	    1.000000E-03	    1.000000E-03	    1.000000E+03	
    2.757069E-02	    1.333538E-02	    0.000000E+00	    0.000000E+00	    1.000000E-03	    1.000000E-03	    1.000000E+03	
    2.792699E-02	    1.047180E-02	    0.000000E+00	    0.000000E+00	    1.000000E-03	    1.000000E-03	    1.000000E+03	
    2.799637E-02	    8.000389E-03	    0.000000E+00	    0.000000E+00	    1.000000E-03	    1.000000E-03	    1.000000E+03	
    2.788837E-02	    5.953297E-03	    0.000000E+00	    0.000000E+00	    1.000000E-03	    1.000000E-03	    1.000000E+03	
    2.769347E-02	    4.319260E-03	    0.000000E+00	    0.000000E+00	    1.000000E-03	    1.000000E-03	    1.000000E+03	
    2.747579E-02	    3.058371E-03	    0.000000E+00	    0.000000E+00	    1.000000E-03	    1.000000E-03	    1.000000E+03	
    2.727387E-02	    2.115728E-03	    0.000000E+00	    0.000000E+00	    1.000000E-03	    1.000000E-03	    1.000000E+03	
    2.710592E-02	    1.431852E-03	    0.000000E+00	    0.000000E+00	    1.000000E-03	    1.000000E-03	    1.000000E+03	
    2.697647E-02	    9.497048E-04	    0.000000E+00	    0.000000E+00	    1.000000E-03	    1.000000E-03	    1.000000E+03	
    2.688228E-02	    6.188408E-04	    0.000000E+00	    0.000000E+00	    1.000000E-03	    1.000000E-03	    1.000000E+03	
    2.681676E-02	    3.973801E-04	    0.000000E+00	    0.000000E+00	    1.000000E-03	    1.000000E-03	    1.000000E+03	
    2.677279E-02	    2.523976E-04	    0.000000E+00	    0.000000E+00	    1.000000E-03	    1.000000E-03	    1.000000E+03	
    2.674409E-02	    1.592439E-04	    0.000000E+00	    0.000000E+00	    1.000000E-03	    1.000000E-03	    1.000000E+03	
    2.673387E-02	    1.263532E-04	    0.000000E+00	    0.000000E+00	    1.000000E-03	    1.000000E-03	    1.000000E+03	
   -2.673284E-02	    1.266695E-04	    0.000000E+00	    0.000000E+00	    1.000000E-03	    1.000000E-03	    1.000000E+03	
   -2.674279E-02	    1.596409E-04	    4.928683E-05	   -1.000000E+00	    1.000000E-03	    1.640000E-03	    7.900000E+02	
   -2.677073E-02	    2.530196E-04	    1.574293E-04	   -1.000000E+00	    1.000000E-03	    1.640000E-03	    7.900000E+02	
   -2.681351E-02	    3.983419E-04	    2.967696E-04	   -1.000000E+00	    1.000000E-03	    1.640000E-03	    7.900000E+02	
   -2.687720E-02	    6.202966E-04	    4.920063E-04	   -1.000000E+00	    1.000000E-03	    1.640000E-03	    7.900000E+02	
   -2.696866E-02	    9.518429E-04	    7.730966E-04	   -1.000000E+00	    1.000000E-03	    1.640000E-03	    7.900000E+02	
   -2.709409E-02	    1.434864E-03	    1.176436E-03	   -1.000000E+00	    1.000000E-03	    1.640000E-03	    7.900000E+02	
   -2.725628E-02	    2.119737E-03	    1.744930E-03	   -1.000000E+00	    1.000000E-03	    1.640000E-03	    7.900000E+02	
   -2.745018E-02	    3.063287E-03	    2.526580E-03	   -1.000000E+00	    1.000000E-03	    1.640000E-03	    7.900000E+02	
   -2.765703E-02	    4.324540E-03	    3.571134E-03	   -1.000000E+00	    1.000000E-03	    1.640000E-03	    7.900000E+02	
   -2.783781E-02	    5.957609E-03	    4.924300E-03	   -1.000000E+00	    1.000000E-03	    1.640000E-03	    7.900000E+02	
   -2.792821E-02	    8.001196E-03	    6.619128E-03	   -1.000000E+00	    1.000000E-03	    1.640000E-03	    7.900000E+02	
   -2.783805E-02	    1.046498E-02	    8.664751E-03	   -1.000000E+00	    1.000000E-03	    1.640000E-03	    7.900000E+02	
   -2.745899E-02	    1.331511E-02	    1.103422E-02	   -1.000000E+00	    1.000000E-03	    1.640000E-03	    7.900000E+02	
   -2.668244E-02	    1.646365E-02	    1.365549E-02	   -1.000000E+00	    1.000000E-03	    1.640000E-03	    7.900000E+02	
   -2.542598E-02	    1.976912E-02	    1.641138E-02	   -1.000000E+00	    1.000000E-03	    1.640000E-03	    7.900000E+02	
   -2.365997E-02	    2.305312E-02	    1.915305E-02	   -1.000000E+00	    1.000000E-03	    1.640000E-03	    7.900000E+02	
   -2.142297E-02	    2.613165E-02	    2.172613E-02	   -1.000000E+00	    1.000000E-03	    1.640000E-03	    7.900000E+02	
   -1.881736E-02	    2.885101E-02	    2.400090E-02	   -1.000000E+00	    1.000000E-03	    1.640000E-03	    7.900000E+02	
   -1.598610E-02	    3.111418E-02	    2.589498E-02	   -1.000000E+00	    1.000000E-03	    1.640000E-03	    7.900000E+02	
   -1.308110E-02	    3.288897E-02	    2.738045E-02	   -1.000000E+00	    1.000000E-03	    1.640000E-03	    7.900000E+02	
   -1.023586E-02	    3.419848E-02	    2.847612E-02	   -1.000000E+00	    1.000000E-03	    1.640000E-03	    7.900000E+02	
   -7.549901E-03	    3.510197E-02	    2.923138E-02	   -1.000000E+00	    1.000000E-03	    1.640000E-03	    7.900000E+02	
   -5.085356E-03	    3.567491E-02	    2.970944E-02	   -1.000000E+00	    1.000000E-03	    1.640000E-03	    7.900000E+02	
   -2.871857E-03	    3.599375E-02	    2.997435E-02	   -1.000000E+00	    1.000000E-03	    1.640000E-03	    7.900000E+02	
   -9.148420E-04	    3.612680E-02	    3.008335E-02	   -1.000000E+00	    1.000000E-03	    1.640000E-03	    7.900000E+02	
    9.148420E-04	    3.612680E-02	    3.008335E-02	   -1.000000E+00	    1.000000E-03	    1.640000E-03	    7.900000E+02	
    2.871857E-03	    3.599375E-02	    2.997435E-02	   -1.000000E+00	    1.000000E-03	    1.640000E-03	    7.900000E+02	
    5.085356E-03	    3.567491E-02	    2.970944E-02	   -1.000000E+00	    1.000000E-03	    1.640000E-03	    7.900000E+02	
    7.549901E-03	    3.510197E-02	    2.923138E-02	   -1.000000E+00	    1.000000E-03	    1.640000E-03	    7.900000E+02	
    1.023586E-02	    3.419848E-02	    2.847612E-02	   -1.000000E+00	    1.000000E-03	    1.640000E-03	    7.900000E+02	
    1.308110E-02	    3.288897E-02	    2.738045E-02	   -1.000000E+00	    1.000000E-03	    1.640000E-03	    7.900000E+02	
    1.598610E-02	    3.111418E-02	    2.589498E-02	   -1.000000E+00	    1.000000E-03	    1.640000E-03	    7.900000E+02	
    1.881736E-02	    2.885101E-02	    2.400090E-02	   -1.000000E+00	    1.000000E-03	    1.640000E-03	    7.900000E+02	
    2.142297E-02	    2.613165E-02	    2.172613E-02	   -1.000000E+00	    1.000000E-03	    1.640000E-03	    7.900000E+02	
    2.365997E-02	    2.305312E-02	    1.915305E-02	   -1.000000E+00	    1.000000E-03	    1.640000E-03	    7.900000E+02	
    2.542598E-02	    1.976912E-02	    1.641138E-02	   -1.000000E+00	    1.000000E-03	    1.640000E-03	    7.900000E+02	
    2.668244E-02	    1.646365E-02	    1.365549E-02	   -1.000000E+00	    1.000000E-03	    1.640000E-03	    7.900000E+02	
    2.745899E-02	    1.331511E-02	    1.103422E-02	   -1.000000E+00	    1.000000E-03	    1.640000E-03	    7.900000E+02	
    2.783805E-02	    1.046498E-02	    8.664751E-03	   -1.000000E+00	    1.000000E-03	    1.640000E-03	    7.900000E+02	
    2.792821E-02	    8.001196E-03	    6.619128E-03	   -1.000000E+00	    1.000000E-03	    1.640000E-03	    7.900000E+02	
    2.783781E-02	    5.957609E-03	    4.924300E-03	   -1.000000E+00	    1.000000E-03	    1.640000E-03	    7.900000E+02	
    2.765703E-02	    4.324540E-03	    3.571134E-03	   -1.000000E+00	    1.000000E-03	    1.640000E-03	    7.900000E+02	
    2.745018E-02	    3.063287E-03	    2.526580E-03	   -1.000000E+00	    1.000000E-03	    1.640000E-03	    7.900000E+02	
    2.725628E-02	    2.119737E-03	    1.744930E-03	   -1.000000E+00	    1.000000E-03	    1.640000E-03	    7.900000E+02	
    2.709409E-02	    1.434864E-03	    1.176436E-03	   -1.000000E+00	    1.000000E-03	    1.640000E-03	    7.900000E+02	
    2.696866E-02	    9.518429E-04	    7.730966E-04	   -1.000000E+00	    1.000000E-03	    1.640000E-03	    7.900000E+02	
    2.687720E-02	    6.202966E-04	    4.920063E-04	   -1.000000E+00	    1.000000E-03	    1.640000E-03	    7.900000E+02	
    2.681351E-02	    3.983419E-04	    2.967696E-04	   -1.000000E+00	    1.000000E-03	    1.640000E-03	    7.900000E+02	
    2.677073E-02	    2.530196E-04	    1.574293E-04	   -1.000000E+00	    1.000000E-03	    1.640000E-03	    7.900000E+02	
    2.674279E-02	    1.596409E-04	    4.928683E-05	   -1.000000E+00	    1.000000E-03	    1.640000E-03	    7.900000E+02	
    2.673284E-02	    1.266695E-04	    0.000000E+00	    0.000000E+00	    1.000000E-03	    1.000000E-03	    1.000000E+03	
   -2.673044E-02	    1.273692E-04	    0.000000E+00	    0.000000E+00	    1.000000E-03	    1.000000E-03	    1.000000E+03	
   -2.673977E-02	    1.605189E-04	    1.632808E-04	   -1.000000E+00	    1.000000E-03	    1.640000E-03	    7.900000E+02	
   -2.676594E-02	    2.543945E-04	    5.215806E-04	   -1.000000E+00	    1.000000E-03	    1.640000E-03	    7.900000E+02	
   -2.680596E-02	    4.004652E-04	    9.831416E-04	   -1.000000E+00	    1.000000E-03	    1.640000E-03	    7.900000E+02	
   -2.686542E-02	    6.235052E-04	    1.629640E-03	   -1.000000E+00	    1.000000E-03	    1.640000E-03	    7.900000E+02	
   -2.695052E-02	    9.565423E-04	    2.559973E-03	   -1.000000E+00	    1.000000E-03	    1.640000E-03	    7.900000E+02	
   -2.706662E-02	    1.441456E-03	    3.893975E-03	   -1.000000E+00	    1.000000E-03	    1.640000E-03	    7.900000E+02	
   -2.721548E-02	    2.128446E-03	    5.772322E-03	   -1.000000E+00	    1.000000E-03	    1.640000E-03	    7.900000E+02	
   -2.739085E-02	    3.073825E-03	    8.351360E-03	   -1.000000E+00	    1.000000E-03	    1.640000E-03	    7.900000E+02	
   -2.757271E-02	    4.335558E-03	    1.179137E-02	   -1.000000E+00	    1.000000E-03	    1.640000E-03	    7.900000E+02	
   -2.772103E-02	    5.965919E-03	    1.623676E-02	   -1.000000E+00	    1.000000E-03	    1.640000E-03	    7.900000E+02	
   -2.777108E-02	    8.000844E-03	    2.178719E-02	   -1.000000E+00	    1.000000E-03	    1.640000E-03	    7.900000E+02	
   -2.763356E-02	    1.044643E-02	    2.846081E-02	   -1.000000E+00	    1.000000E-03	    1.640000E-03	    7.900000E+02	
   -2.720286E-02	    1.326496E-02	    3.615612E-02	   -1.000000E+00	    1.000000E-03	    1.640000E-03	    7.900000E+02	
   -2.637538E-02	    1.636555E-02	    4.462593E-02	   -1.000000E+00	    1.000000E-03	    1.640000E-03	    7.900000E+02	
   -2.507544E-02	    1.960602E-02	    5.348200E-02	   -1.000000E+00	    1.000000E-03	    1.640000E-03	    7.900000E+02	
   -2.328046E-02	    2.281068E-02	    6.224322E-02	   -1.000000E+00	    1.000000E-03	    1.640000E-03	    7.900000E+02	
   -2.103429E-02	    2.580157E-02	    7.042128E-02	   -1.000000E+00	    1.000000E-03	    1.640000E-03	    7.900000E+02	
   -1.844114E-02	    2.843289E-02	    7.761561E-02	   -1.000000E+00	    1.000000E-03	    1.640000E-03	    7.900000E+02	
   -1.564195E-02	    3.061525E-02	    8.358046E-02	   -1.000000E+00	    1.000000E-03	    1.640000E-03	    7.900000E+02	
   -1.278379E-02	    3.232189E-02	    8.824233E-02	   -1.000000E+00	    1.000000E-03	    1.640000E-03	    7.900000E+02	
   -9.994175E-03	    3.357844E-02	    9.167167E-02	   -1.000000E+00	    1.000000E-03	    1.640000E-03	    7.900000E+02	
   -7.367039E-03	    3.444406E-02	    9.403097E-02	   -1.000000E+00	    1.000000E-03	    1.640000E-03	    7.900000E+02	
   -4.960225E-03	    3.499243E-02	    9.552226E-02	   -1.000000E+00	    1.000000E-03	    1.640000E-03	    7.900000E+02	
   -2.800576E-03	    3.529740E-02	    9.634781E-02	   -1.000000E+00	    1.000000E-03	    1.640000E-03	    7.900000E+02	
   -8.920532E-04	    3.542463E-02	    9.668710E-02	   -1.000000E+00	    1.000000E-03	    1.640000E-03	    7.900000E+02	
    8.920532E-04	    3.542463E-02	    9.668710E-02	   -1.000000E+00	    1.000000E-03	    1.640000E-03	    7.900000E+02	
    2.800576E-03	    3.529740E-02	    9.634781E-02	   -1.000000E+00	    1.000000E-03	    1.640000E-03	    7.900000E+02	
    4.960225E-03	    3.499243E-02	    9.552226E-02	   -1.000000E+00	    1.000000E-03	    1.640000E-03	    7.900000E+02	
    7.367039E-03	    3.444406E-02	    9.403097E-02	   -1.000000E+00	    1.000000E-03	    1.640000E-03	    7.900000E+02	
    9.994175E-03	    3.357844E-02	    9.167167E-02	   -1.000000E+00	    1.000000E-03	    1.640000E-03	    7.900000E+02	
    1.278379E-02	    3.232189E-02	    8.824233E-02	   -1.000000E+00	    1.000000E-03	    1.640000E-03	    7.900000E+02	
    1.564195E-02	    3.061525E-02	    8.358046E-02	   -1.000000E+00	    1.000000E-03	    1.640000E-03	    7.900000E+02	
    1.844114E-02	    2.843289E-02	    7.761561E-02	   -1.000000E+00	    1.000000E-03	    1.640000E-03	    7.900000E+02	
    2.103429E-02	    2.580157E-02	    7.042128E-02	   -1.000000E+00	    1.000000E-03	    1.640000E-03	    7.900000E+02	
    2.328046E-02	    2.281068E-02	    6.224322E-02	   -1.000000E+00	    1.000000E-03	    1.640000E-03	    7.900000E+02	
    2.507544E-02	    1.960602E-02	    5.348200E-02	   -1.000000E+00	    1.000000E-03	    1.640000E-03	    7.900000E+02	
    2.637538E-02	    1.636555E-02	    4.462593E-02	   -1.000000E+00	    1.000000E-03	    1.640000E-03	    7.900000E+02	
    2.720286E-02	    1.326496E-02	    3.615612E-02	   -1.000000E+00	    1.000000E-03	    1.640000E-03	    7.900000E+02	
    2.763356E-02	    1.044643E-02	    2.846081E-02	   -1.000000E+00	    1.000000E-03	    1.640000E-03	    7.900000E+02	
    2.777108E-02	    8.000844E-03	    2.178719E-02	   -1.000000E+00	    1.000000E-03	    1.640000E-03	    7.900000E+02	
    2.772103E-02	    5.965919E-03	    1.623676E-02	   -1.000000E+00	    1.000000E-03	    1.640000E-03	    7.900000E+02	
    2.757271E-02	    4.335558E-03	    1.179137E-02	   -1.000000E+00	    1.000000E-03	    1.640000E-03	    7.900000E+02	
    2.739085E-02	    3.073825E-03	    8.351360E-03	   -1.000000E+00	    1.000000E-03	    1.640000E-03	    7.900000E+02	
    2.721548E-02	    2.128446E-03	    5.772322E-03	   -1.000000E+00	    1.000000E-03	    1.640000E-03	    7.900000E+02	
    2.706662E-02	    1.441456E-03	    3.893975E-03	   -1.000000E+00	    1.000000E-03	    1.640000E-03	    7.900000E+02	
    2.695052E-02	    9.565423E-04	    2.559973E-03	   -1.000000E+00	    1.000000E-03	    1.640000E-03	    7.900000E+02	
    2.686542E-02	    6.235052E-04	    1.629640E-03	   -1.000000E+00	    1.000000E-03	    1.640000E-03	    7.900000E+02	
    2.680596E-02	    4.004652E-04	    9.831416E-04	   -1.000000E+00	    1.000000E-03	    1.640000E-03	    7.900000E+02	
    2.676594E-02	    2.543945E-04	    5.215806E-04	   -1.000000E+00	    1.000000E-03	    1.640000E-03	    7.900000E+02	
    2.673977E-02	    1.605189E-04	    1.632808E-04	   -1.000000E+00	    1.000000E-03	    1.640000E-03	    7.900000E+02	
    2.673044E-02	    1.273692E-04	    0.000000E+00	    0.000000E+00	    1.000000E-03	    1.000000E-03	    1.000000E+03	
   -2.672729E-02	    1.282169E-04	    0.000000E+00	    0.000000E+00	    1.000000E-03	    1.000000E-03	    1.000000E+03	
   -2.673579E-02	    1.615823E-04	    3.123815E-04	   -1.000000E+00	    1.000000E-03	    1.640000E-03	    7.900000E+02	
   -2.675963E-02	    2.560575E-04	    9.979372E-04	   -1.000000E+00	    1.000000E-03	    1.640000E-03	    7.900000E+02	
   -2.679602E-02	    4.030285E-04	    1.880849E-03	   -1.000000E+00	    1.000000E-03	    1.640000E-03	    7.900000E+02	
   -2.684990E-02	    6.273667E-04	    3.117060E-03	   -1.000000E+00	    1.000000E-03	    1.640000E-03	    7.900000E+02	
   -2.692665E-02	    9.621695E-04	    4.895043E-03	   -1.000000E+00	    1.000000E-03	    1.640000E-03	    7.900000E+02	
   -2.703052E-02	    1.449286E-03	    7.442481E-03	   -1.000000E+00	    1.000000E-03	    1.640000E-03	    7.900000E+02	
   -2.716191E-02	    2.138647E-03	    1.102542E-02	   -1.000000E+00	    1.000000E-03	    1.640000E-03	    7.900000E+02	
   -2.731305E-02	    3.085859E-03	    1.593734E-02	   -1.000000E+00	    1.000000E-03	    1.640000E-03	    7.900000E+02	
   -2.746239E-02	    4.347463E-03	    2.247541E-02	   -1.000000E+00	    1.000000E-03	    1.640000E-03	    7.900000E+02	
   -2.756863E-02	    5.973314E-03	    3.090134E-02	   -1.000000E+00	    1.000000E-03	    1.640000E-03	    7.900000E+02	
   -2.756671E-02	    7.995767E-03	    4.138558E-02	   -1.000000E+00	    1.000000E-03	    1.640000E-03	    7.900000E+02	
   -2.736864E-02	    1.041637E-02	    5.393850E-02	   -1.000000E+00	    1.000000E-03	    1.640000E-03	    7.900000E+02	
   -2.687255E-02	    1.319266E-02	    6.834181E-02	   -1.000000E+00	    1.000000E-03	    1.640000E-03	    7.900000E+02	
   -2.598139E-02	    1.623029E-02	    8.410693E-02	   -1.000000E+00	    1.000000E-03	    1.640000E-03	    7.900000E+02	
   -2.462802E-02	    1.938664E-02	    1.004933E-01	   -1.000000E+00	    1.000000E-03	    1.640000E-03	    7.900000E+02	
   -2.279857E-02	    2.248985E-02	    1.166064E-01	   -1.000000E+00	    1.000000E-03	    1.640000E-03	    7.900000E+02	
   -2.054314E-02	    2.536982E-02	    1.315598E-01	   -1.000000E+00	    1.000000E-03	    1.640000E-03	    7.900000E+02	
   -1.796775E-02	    2.789069E-02	    1.446451E-01	   -1.000000E+00	    1.000000E-03	    1.640000E-03	    7.900000E+02	
   -1.521045E-02	    2.997239E-02	    1.554452E-01	   -1.000000E+00	    1.000000E-03	    1.640000E-03	    7.900000E+02	
   -1.241205E-02	    3.159460E-02	    1.638550E-01	   -1.000000E+00	    1.000000E-03	    1.640000E-03	    7.900000E+02	
   -9.692598E-03	    3.278581E-02	    1.700239E-01	   -1.000000E+00	    1.000000E-03	    1.640000E-03	    7.900000E+02	
   -7.139183E-03	    3.360486E-02	    1.742592E-01	   -1.000000E+00	    1.000000E-03	    1.640000E-03	    7.900000E+02	
   -4.804444E-03	    3.412306E-02	    1.769324E-01	   -1.000000E+00	    1.000000E-03	    1.640000E-03	    7.900000E+02	
   -2.711879E-03	    3.441104E-02	    1.784107E-01	   -1.000000E+00	    1.000000E-03	    1.640000E-03	    7.900000E+02	
   -8.637023E-04	    3.453113E-02	    1.790177E-01	   -1.000000E+00	    1.000000E-03	    1.640000E-03	    7.900000E+02	
    8.637023E-04	    3.453113E-02	    1.790177E-01	   -1.000000E+00	    1.000000E-03	    1.640000E-03	    7.900000E+02	
    2.711879E-03	    3.441104E-02	    1.784107E-01	   -1.000000E+00	    1.000000E-03	    1.640000E-03	    7.900000E+02	
    4.804444E-03	    3.412306E-02	    1.769324E-01	   -1.000000E+00	    1.000000E-03	    1.640000E-03	    7.900000E+02	
    7.139183E-03	    3.360486E-02	    1.742592E-01	   -1.000000E+00	    1.000000E-03	    1.640000E-03	    7.900000E+02	
    9.692598E-03	    3.278581E-02	    1.700239E-01	   -1.000000E+00	    1.000000E-03	    1.640000E-03	    7.900000E+02	
    1.241205E-02	    3.159460E-02	    1.638550E-01	   -1.000000E+00	    1.000000E-03	    1.640000E-03	    7.900000E+02	
    1.521045E-02	    2.997239E-02	    1.554452E-01	   -1.000000E+00	    1.000000E-03	    1.640000E-03	    7.900000E+02	
    1.796775E-02	    2.789069E-02	    1.446451E-01	   -1.000000E+00	    1.000000E-03	    1.640000E-03	    7.900000E+02	
    2.054314E-02	    2.536982E-02	    1.315598E-01	   -1.000000E+00	    1.000000E-03	    1.640000E-03	    7.900000E+02	
    2.279857E-02	    2.248985E-02	    1.166064E-01	   -1.000000E+00	    1.000000E-03	    1.640000E-03	    7.900000E+02	
    2.462802E-02	    1.938664E-02	    1.004933E-01	   -1.000000E+00	    1.000000E-03	    1.640000E-03	    7.900000E+02	
    2.598139E-02	    1.623029E-02	    8.410693E-02	   -1.000000E+00	    1.000000E-03	    1.640000E-03	    7.900000E+02	
    2.687255E-02	    1.319266E-02	    6.834181E-02	   -1.000000E+00	    1.000000E-03	    1.640000E-03	    7.900000E+02	
    2.736864E-02	    1.041637E-02	    5.393850E-02	   -1.000000E+00	    1.000000E-03	    1.640000E-03	    7.900000E+02	
    2.756671E-02	    7.995767E-03	    4.138558E-02	   -1.000000E+00	    1.000000E-03	    1.640000E-03	    7.900000E+02	
    2.756863E-02	    5.973314E-03	    3.090134E-02	   -1.000000E+00	    1.000000E-03	    1.640000E-03	    7.900000E+02	
    2.746239E-02	    4.347463E-03	    2.247541E-02	   -1.000000E+00	    1.000000E-03	    1.640000E-03	    7.900000E+02	
    2.731305E-02	    3.085859E-03	    1.593734E-02	   -1.000000E+00	    1.000000E-03	    1.640000E-03	    7.900000E+02	
    2.716191E-02	    2.138647E-03	    1.102542E-02	   -1.000000E+00	    1.000000E-03	    1.640000E-03	    7.900000E+02	
    2.703052E-02	    1.449286E-03	    7.442481E-03	   -1.000000E+00	    1.000000E-03	    1.640000E-03	    7.900000E+02	
    2.692665E-02	    9.621695E-04	    4.895043E-03	   -1.000000E+00	    1.000000E-03	    1.640000E-03	    7.900000E+02	
    2.684990E-02	    6.273667E-04	    3.117060E-03	   -1.000000E+00	    1.000000E-03	    1.640000E-03	    7.900000E+02	
    2.679602E-02	    4.030285E-04	    1.880849E-03	   -1.000000E+00	    1.000000E-03	    1.640000E-03	    7.900000E+02	
    2.675963E-02	    2.560575E-04	    9.979372E-04	   -1.000000E+00	    1.000000E-03	    1.640000E-03	    7.900000E+02	
    2.673579E-02	    1.615823E-04	    3.123815E-04	   -1.000000E+00	    1.000000E-03	    1.640000E-03	    7.900000E+02	
    2.672729E-02	    1.282169E-04	    0.000000E+00	    0.000000E+00	    1.000000E-03	    1.000000E-03	    1.000000E+03	
   -2.672316E-02	    1.292018E-04	    0.000000E+00	    0.000000E+00	    1.000000E-03	    1.000000E-03	    1.000000E+03	
   -2.673059E-02	    1.628170E-04	    5.057397E-04	   -1.000000E+00	    1.000000E-03	    1.640000E-03	    7.900000E+02	
   -2.675138E-02	    2.579847E-04	    1.615771E-03	   -1.000000E+00	    1.000000E-03	    1.640000E-03	    7.900000E+02	
   -2.678301E-02	    4.059901E-04	    3.044906E-03	   -1.000000E+00	    1.000000E-03	    1.640000E-03	    7.900000E+02	
   -2.682962E-02	    6.318059E-04	    5.044956E-03	   -1.000000E+00	    1.000000E-03	    1.640000E-03	    7.900000E+02	
   -2.689547E-02	    9.685874E-04	    7.919525E-03	   -1.000000E+00	    1.000000E-03	    1.640000E-03	    7.900000E+02	
   -2.698339E-02	    1.458098E-03	    1.203399E-02	   -1.000000E+00	    1.000000E-03	    1.640000E-03	    7.900000E+02	
   -2.709209E-02	    2.149868E-03	    1.781271E-02	   -1.000000E+00	    1.000000E-03	    1.640000E-03	    7.900000E+02	
   -2.721186E-02	    3.098521E-03	    2.571931E-02	   -1.000000E+00	    1.000000E-03	    1.640000E-03	    7.900000E+02	
   -2.731926E-02	    4.358700E-03	    3.621568E-02	   -1.000000E+00	    1.000000E-03	    1.640000E-03	    7.900000E+02	
   -2.737160E-02	    5.977104E-03	    4.969627E-02	   -1.000000E+00	    1.000000E-03	    1.640000E-03	    7.900000E+02	
   -2.730363E-02	    7.981526E-03	    6.639709E-02	   -1.000000E+00	    1.000000E-03	    1.640000E-03	    7.900000E+02	
   -2.702935E-02	    1.036786E-02	    8.628754E-02	   -1.000000E+00	    1.000000E-03	    1.640000E-03	    7.900000E+02	
   -2.645201E-02	    1.308798E-02	    1.089692E-01	   -1.000000E+00	    1.000000E-03	    1.640000E-03	    7.900000E+02	
   -2.548297E-02	    1.604369E-02	    1.336242E-01	   -1.000000E+00	    1.000000E-03	    1.640000E-03	    7.900000E+02	
   -2.406578E-02	    1.909253E-02	    1.590628E-01	   -1.000000E+00	    1.000000E-03	    1.640000E-03	    7.900000E+02	
   -2.219698E-02	    2.206802E-02	    1.838919E-01	   -1.000000E+00	    1.000000E-03	    1.640000E-03	    7.900000E+02	
   -1.993371E-02	    2.481013E-02	    2.067708E-01	   -1.000000E+00	    1.000000E-03	    1.640000E-03	    7.900000E+02	
   -1.738348E-02	    2.719523E-02	    2.266634E-01	   -1.000000E+00	    1.000000E-03	    1.640000E-03	    7.900000E+02	
   -1.468021E-02	    2.915425E-02	    2.429921E-01	   -1.000000E+00	    1.000000E-03	    1.640000E-03	    7.900000E+02	
   -1.195680E-02	    3.067432E-02	    2.556509E-01	   -1.000000E+00	    1.000000E-03	    1.640000E-03	    7.900000E+02	
   -9.324200E-03	    3.178687E-02	    2.649052E-01	   -1.000000E+00	    1.000000E-03	    1.640000E-03	    7.900000E+02	
   -6.861320E-03	    3.255005E-02	    2.712431E-01	   -1.000000E+00	    1.000000E-03	    1.640000E-03	    7.900000E+02	
   -4.614682E-03	    3.303217E-02	    2.752365E-01	   -1.000000E+00	    1.000000E-03	    1.640000E-03	    7.900000E+02	
   -2.603899E-03	    3.329984E-02	    2.774423E-01	   -1.000000E+00	    1.000000E-03	    1.640000E-03	    7.900000E+02	
   -8.291968E-04	    3.341141E-02	    2.783471E-01	   -1.000000E+00	    1.000000E-03	    1.640000E-03	    7.900000E+02	
    8.291968E-04	    3.341141E-02	    2.783471E-01	   -1.000000E+00	    1.000000E-03	    1.640000E-03	    7.900000E+02	
    2.603899E-03	    3.329984E-02	    2.774423E-01	   -1.000000E+00	    1.000000E-03	    1.640000E-03	    7.900000E+02	
    4.614682E-03	    3.303217E-02	    2.752365E-01	   -1.000000E+00	    1.000000E-03	    1.640000E-03	    7.900000E+02	
    6.861320E-03	    3.255005E-02	    2.712431E-01	   -1.000000E+00	    1.000000E-03	    1.640000E-03	    7.900000E+02	
    9.324200E-03	    3.178687E-02	    2.649052E-01	   -1.000000E+00	    1.000000E-03	    1.640000E-03	    7.900000E+02	
    1.195680E-02	    3.067432E-02	    2.556509E-01	   -1.000000E+00	    1.000000E-03	    1.640000E-03	    7.900000E+02	
    1.468021E-02	    2.915425E-02	    2.429921E-01	   -1.000000E+00	    1.000000E-03	    1.640000E-03	    7.900000E+02	
    1.738348E-02	    2.719523E-02	    2.266634E-01	   -1.000000E+00	    1.000000E-03	    1.640000E-03	    7.900000E+02	
    1.993371E-02	    2.481013E-02	    2.067708E-01	   -1.000000E+00	    1.000000E-03	    1.640000E-03	    7.900000E+02	
    2.219698E-02	    2.206802E-02	    1.838919E-01	   -1.000000E+00	    1.000000E-03	    1.640000E-03	    7.900000E+02	
    2.406578E-02	    1.909253E-02	    1.590628E-01	   -1.000000E+00	    1.000000E-03	    1.640000E-03	    7.900000E+02	
    2.548297E-02	    1.604369E-02	    1.336242E-01	   -1.000000E+00	    1.000000E-03	    1.640000E-03	    7.900000E+02	
    2.645201E-02	    1.308798E-02	    1.089692E-01	   -1.000000E+00	    1.000000E-03	    1.640000E-03	    7.900000E+02	
    2.702935E-02	    1.036786E-02	    8.628754E-02	   -1.000000E+00	    1.000000E-03	    1.640000E-03	    7.900000E+02	
    2.730363E-02	    7.981526E-03	    6.639709E-02	   -1.000000E+00	    1.000000E-03	    1.640000E-03	    7.900000E+02	