Title="Fields"
Variables="X""Y""Velocity""Phi""Effective Viscosity""Dynamic Viscosity""Density"
Zone I=82 J=82 F=POINT
   -2.624776E-02	    1.217693E-04	    0.000000E+00	   -1.000000E+00	    1.640000E-03	    1.640000E-03	    7.900000E+02	
   -2.625479E-02	    1.407396E-04	    0.000000E+00	   -1.000000E+00	    1.640000E-03	    1.640000E-03	    7.900000E+02	
   -2.627223E-02	    1.879178E-04	    0.000000E+00	   -1.000000E+00	    1.640000E-03	    1.640000E-03	    7.900000E+02	
   -2.629522E-02	    2.505130E-04	    0.000000E+00	   -1.000000E+00	    1.640000E-03	    1.640000E-03	    7.900000E+02	
   -2.632527E-02	    3.330602E-04	    0.000000E+00	   -1.000000E+00	    1.640000E-03	    1.640000E-03	    7.900000E+02	
   -2.636419E-02	    4.411546E-04	    0.000000E+00	   -1.000000E+00	    1.640000E-03	    1.640000E-03	    7.900000E+02	
   -2.641400E-02	    5.815855E-04	    0.000000E+00	   -1.000000E+00	    1.640000E-03	    1.640000E-03	    7.900000E+02	
   -2.647691E-02	    7.624483E-04	    0.000000E+00	   -1.000000E+00	    1.640000E-03	    1.640000E-03	    7.900000E+02	
   -2.655519E-02	    9.932179E-04	    0.000000E+00	   -1.000000E+00	    1.640000E-03	    1.640000E-03	    7.900000E+02	
   -2.665089E-02	    1.284770E-03	    0.000000E+00	   -1.000000E+00	    1.640000E-03	    1.640000E-03	    7.900000E+02	
   -2.676561E-02	    1.649334E-03	    0.000000E+00	   -1.000000E+00	    1.640000E-03	    1.640000E-03	    7.900000E+02	
   -2.690002E-02	    2.100353E-03	    0.000000E+00	   -1.000000E+00	    1.640000E-03	    1.640000E-03	    7.900000E+02	
   -2.705335E-02	    2.652244E-03	    0.000000E+00	   -1.000000E+00	    1.640000E-03	    1.640000E-03	    7.900000E+02	
   -2.722277E-02	    3.320017E-03	    0.000000E+00	   -1.000000E+00	    1.640000E-03	    1.640000E-03	    7.900000E+02	
   -2.740268E-02	    4.118730E-03	    0.000000E+00	   -1.000000E+00	    1.640000E-03	    1.640000E-03	    7.900000E+02	
   -2.758400E-02	    5.062751E-03	    0.000000E+00	   -1.000000E+00	    1.640000E-03	    1.640000E-03	    7.900000E+02	
   -2.775358E-02	    6.164789E-03	    0.000000E+00	   -1.000000E+00	    1.640000E-03	    1.640000E-03	    7.900000E+02	
   -2.789377E-02	    7.434685E-03	    0.000000E+00	   -1.000000E+00	    1.640000E-03	    1.640000E-03	    7.900000E+02	
   -2.798237E-02	    8.877979E-03	    0.000000E+00	   -1.000000E+00	    1.640000E-03	    1.640000E-03	    7.900000E+02	
   -2.799307E-02	    1.049435E-02	    0.000000E+00	   -1.000000E+00	    1.640000E-03	    1.640000E-03	    7.900000E+02	
   -2.789655E-02	    1.227605E-02	    0.000000E+00	   -1.000000E+00	    1.640000E-03	    1.640000E-03	    7.900000E+02	
   -2.766235E-02	    1.420668E-02	    0.000000E+00	   -1.000000E+00	    1.640000E-03	    1.640000E-03	    7.900000E+02	
   -2.726134E-02	    1.626042E-02	    0.000000E+00	   -1.000000E+00	    1.640000E-03	    1.640000E-03	    7.900000E+02	
   -2.666877E-02	    1.840234E-02	    0.000000E+00	   -1.000000E+00	    1.640000E-03	    1.640000E-03	    7.900000E+02	
   -2.586730E-02	    2.058974E-02	    0.000000E+00	   -1.000000E+00	    1.640000E-03	    1.640000E-03	    7.900000E+02	
   -2.484965E-02	    2.277469E-02	    0.000000E+00	   -1.000000E+00	    1.640000E-03	    1.640000E-03	    7.900000E+02	
   -2.362019E-02	    2.490757E-02	    0.000000E+00	   -1.000000E+00	    1.640000E-03	    1.640000E-03	    7.900000E+02	
   -2.219521E-02	    2.694104E-02	    0.000000E+00	   -1.000000E+00	    1.640000E-03	    1.640000E-03	    7.900000E+02	
   -2.060163E-02	    2.883381E-02	    0.000000E+00	   -1.000000E+00	    1.640000E-03	    1.640000E-03	    7.900000E+02	
   -1.887443E-02	    3.055366E-02	    0.000000E+00	   -1.000000E+00	    1.640000E-03	    1.640000E-03	    7.900000E+02	
   -1.705335E-02	    3.207913E-02	    0.000000E+00	   -1.000000E+00	    1.640000E-03	    1.640000E-03	    7.900000E+02	
   -1.517933E-02	    3.339985E-02	    0.000000E+00	   -1.000000E+00	    1.640000E-03	    1.640000E-03	    7.900000E+02	
   -1.329134E-02	    3.451567E-02	    0.000000E+00	   -1.000000E+00	    1.640000E-03	    1.640000E-03	    7.900000E+02	
   -1.142403E-02	    3.543488E-02	    0.000000E+00	   -1.000000E+00	    1.640000E-03	    1.640000E-03	    7.900000E+02	
   -9.606231E-03	    3.617198E-02	    0.000000E+00	   -1.000000E+00	    1.640000E-03	    1.640000E-03	    7.900000E+02	
   -7.860403E-03	    3.674544E-02	    0.000000E+00	   -1.000000E+00	    1.640000E-03	    1.640000E-03	    7.900000E+02	
   -6.202708E-03	    3.717573E-02	    0.000000E+00	   -1.000000E+00	    1.640000E-03	    1.640000E-03	    7.900000E+02	
   -4.643627E-03	    3.748366E-02	    0.000000E+00	   -1.000000E+00	    1.640000E-03	    1.640000E-03	    7.900000E+02	
   -3.188809E-03	    3.768923E-02	    0.000000E+00	   -1.000000E+00	    1.640000E-03	    1.640000E-03	    7.900000E+02	
   -1.840018E-03	    3.781088E-02	    0.000000E+00	   -1.000000E+00	    1.640000E-03	    1.640000E-03	    7.900000E+02	
   -5.960604E-04	    3.786505E-02	    0.000000E+00	   -1.000000E+00	    1.640000E-03	    1.640000E-03	    7.900000E+02	
    5.960604E-04	    3.786505E-02	    0.000000E+00	   -1.000000E+00	    1.640000E-03	    1.640000E-03	    7.900000E+02	
    1.840018E-03	    3.781088E-02	    0.000000E+00	   -1.000000E+00	    1.640000E-03	    1.640000E-03	    7.900000E+02	
    3.188809E-03	    3.768923E-02	    0.000000E+00	   -1.000000E+00	    1.640000E-03	    1.640000E-03	    7.900000E+02	
    4.643627E-03	    3.748366E-02	    0.000000E+00	   -1.000000E+00	    1.640000E-03	    1.640000E-03	    7.900000E+02	
    6.202708E-03	    3.717573E-02	    0.000000E+00	   -1.000000E+00	    1.640000E-03	    1.640000E-03	    7.900000E+02	
    7.860403E-03	    3.674544E-02	    0.000000E+00	   -1.000000E+00	    1.640000E-03	    1.640000E-03	    7.900000E+02	
    9.606231E-03	    3.617198E-02	    0.000000E+00	   -1.000000E+00	    1.640000E-03	    1.640000E-03	    7.900000E+02	
    1.142403E-02	    3.543488E-02	    0.000000E+00	   -1.000000E+00	    1.640000E-03	    1.640000E-03	    7.900000E+02	
    1.329134E-02	    3.451567E-02	    0.000000E+00	   -1.000000E+00	    1.640000E-03	    1.640000E-03	    7.900000E+02	
    1.517933E-02	    3.339985E-02	    0.000000E+00	   -1.000000E+00	    1.640000E-03	    1.640000E-03	    7.900000E+02	
    1.705335E-02	    3.207913E-02	    0.000000E+00	   -1.000000E+00	    1.640000E-03	    1.640000E-03	    7.900000E+02	
    1.887443E-02	    3.055366E-02	    0.000000E+00	   -1.000000E+00	    1.640000E-03	    1.640000E-03	    7.900000E+02	
    2.060163E-02	    2.883381E-02	    0.000000E+00	   -1.000000E+00	    1.640000E-03	    1.640000E-03	    7.900000E+02	
    2.219521E-02	    2.694104E-02	    0.000000E+00	   -1.000000E+00	    1.640000E-03	    1.640000E-03	    7.900000E+02	
    2.362019E-02	    2.490757E-02	    0.000000E+00	   -1.000000E+00	    1.640000E-03	    1.640000E-03	    7.900000E+02	
    2.484965E-02	    2.277469E-02	    0.000000E+00	   -1.000000E+00	    1.640000E-03	    1.640000E-03	    7.900000E+02	
    2.586730E-02	    2.058974E-02	    0.000000E+00	   -1.000000E+00	    1.640000E-03	    1.640000E-03	    7.900000E+02	
    2.666877E-02	    1.840234E-02	    0.000000E+00	   -1.000000E+00	    1.640000E-03	    1.640000E-03	    7.900000E+02	
    2.726134E-02	    1.626042E-02	    0.000000E+00	   -1.000000E+00	    1.640000E-03	    1.640000E-03	    7.900000E+02	
    2.766235E-02	    1.420668E-02	    0.000000E+00	   -1.000000E+00	    1.640000E-03	    1.640000E-03	    7.900000E+02	
    2.789655E-02	    1.227605E-02	    0.000000E+00	   -1.000000E+00	    1.640000E-03	    1.640000E-03	    7.900000E+02	
    2.799307E-02	    1.049435E-02	    0.000000E+00	   -1.000000E+00	    1.640000E-03	    1.640000E-03	    7.900000E+02	
    2.798237E-02	    8.877979E-03	    0.000000E+00	   -1.000000E+00	    1.640000E-03	    1.640000E-03	    7.900000E+02	
    2.789377E-02	    7.434685E-03	    0.000000E+00	   -1.000000E+00	    1.640000E-03	    1.640000E-03	    7.900000E+02	
    2.775358E-02	    6.164789E-03	    0.000000E+00	   -1.000000E+00	    1.640000E-03	    1.640000E-03	    7.900000E+02	
    2.758400E-02	    5.062751E-03	    0.000000E+00	   -1.000000E+00	    1.640000E-03	    1.640000E-03	    7.900000E+02	
    2.740268E-02	    4.118730E-03	    0.000000E+00	   -1.000000E+00	    1.640000E-03	    1.640000E-03	    7.900000E+02	
    2.722277E-02	    3.320017E-03	    0.000000E+00	   -1.000000E+00	    1.640000E-03	    1.640000E-03	    7.900000E+02	
    2.705335E-02	    2.652244E-03	    0.000000E+00	   -1.000000E+00	    1.640000E-03	    1.640000E-03	    7.900000E+02	
    2.690002E-02	    2.100353E-03	    0.000000E+00	   -1.000000E+00	    1.640000E-03	    1.640000E-03	    7.900000E+02	
    2.676561E-02	    1.649334E-03	    0.000000E+00	   -1.000000E+00	    1.640000E-03	    1.640000E-03	    7.900000E+02	
    2.665089E-02	    1.284770E-03	    0.000000E+00	   -1.000000E+00	    1.640000E-03	    1.640000E-03	    7.900000E+02	
    2.655519E-02	    9.932179E-04	    0.000000E+00	   -1.000000E+00	    1.640000E-03	    1.640000E-03	    7.900000E+02	
    2.647691E-02	    7.624483E-04	    0.000000E+00	   -1.000000E+00	    1.640000E-03	    1.640000E-03	    7.900000E+02	
    2.641400E-02	    5.815855E-04	    0.000000E+00	   -1.000000E+00	    1.640000E-03	    1.640000E-03	    7.900000E+02	
    2.636419E-02	    4.411546E-04	    0.000000E+00	   -1.000000E+00	    1.640000E-03	    1.640000E-03	    7.900000E+02	
    2.632527E-02	    3.330602E-04	    0.000000E+00	   -1.000000E+00	    1.640000E-03	    1.640000E-03	    7.900000E+02	
    2.629522E-02	    2.505130E-04	    0.000000E+00	   -1.000000E+00	    1.640000E-03	    1.640000E-03	    7.900000E+02	
    2.627223E-02	    1.879178E-04	    0.000000E+00	   -1.000000E+00	    1.640000E-03	    1.640000E-03	    7.900000E+02	
    2.625479E-02	    1.407396E-04	    0.000000E+00	   -1.000000E+00	    1.640000E-03	    1.640000E-03	    7.900000E+02	
    2.624776E-02	    1.217693E-04	    0.000000E+00	   -1.000000E+00	    1.640000E-03	    1.640000E-03	    7.900000E+02	
   -2.624715E-02	    1.219923E-04	    0.000000E+00	   -1.000000E+00	    1.640000E-03	    1.640000E-03	    7.900000E+02	
   -2.625410E-02	    1.409969E-04	    2.082310E-05	   -1.000000E+00	    1.640000E-03	    1.640000E-03	    7.900000E+02	
   -2.627130E-02	    1.882596E-04	    6.378504E-05	   -1.000000E+00	    1.640000E-03	    1.640000E-03	    7.900000E+02	
   -2.629397E-02	    2.509657E-04	    1.111974E-04	   -1.000000E+00	    1.640000E-03	    1.640000E-03	    7.900000E+02	
   -2.632362E-02	    3.336569E-04	    1.662449E-04	   -1.000000E+00	    1.640000E-03	    1.640000E-03	    7.900000E+02	
   -2.636199E-02	    4.419358E-04	    2.323521E-04	   -1.000000E+00	    1.640000E-03	    1.640000E-03	    7.900000E+02	
   -2.641109E-02	    5.826000E-04	    3.132751E-04	   -1.000000E+00	    1.640000E-03	    1.640000E-03	    7.900000E+02	
   -2.647309E-02	    7.637521E-04	    4.131648E-04	   -1.000000E+00	    1.640000E-03	    1.640000E-03	    7.900000E+02	
   -2.655019E-02	    9.948728E-04	    5.366020E-04	   -1.000000E+00	    1.640000E-03	    1.640000E-03	    7.900000E+02	
   -2.664441E-02	    1.286840E-03	    6.886038E-04	   -1.000000E+00	    1.640000E-03	    1.640000E-03	    7.900000E+02	
   -2.675725E-02	    1.651877E-03	    8.745997E-04	   -1.000000E+00	    1.640000E-03	    1.640000E-03	    7.900000E+02	
   -2.688932E-02	    2.103412E-03	    1.100373E-03	   -1.000000E+00	    1.640000E-03	    1.640000E-03	    7.900000E+02	
   -2.703978E-02	    2.655830E-03	    1.371962E-03	   -1.000000E+00	    1.640000E-03	    1.640000E-03	    7.900000E+02	
   -2.720568E-02	    3.324085E-03	    1.695521E-03	   -1.000000E+00	    1.640000E-03	    1.640000E-03	    7.900000E+02	
   -2.738133E-02	    4.123154E-03	    2.077110E-03	   -1.000000E+00	    1.640000E-03	    1.640000E-03	    7.900000E+02	
   -2.755759E-02	    5.067284E-03	    2.522417E-03	   -1.000000E+00	    1.640000E-03	    1.640000E-03	    7.900000E+02	
   -2.772123E-02	    6.169023E-03	    3.036382E-03	   -1.000000E+00	    1.640000E-03	    1.640000E-03	    7.900000E+02	
   -2.785457E-02	    7.438005E-03	    3.622712E-03	   -1.000000E+00	    1.640000E-03	    1.640000E-03	    7.900000E+02	
   -2.793542E-02	    8.879522E-03	    4.283296E-03	   -1.000000E+00	    1.640000E-03	    1.640000E-03	    7.900000E+02	
   -2.793757E-02	    1.049297E-02	    5.017552E-03	   -1.000000E+00	    1.640000E-03	    1.640000E-03	    7.900000E+02	
   -2.783188E-02	    1.227031E-02	    5.821764E-03	   -1.000000E+00	    1.640000E-03	    1.640000E-03	    7.900000E+02	
   -2.758815E-02	    1.419485E-02	    6.688537E-03	   -1.000000E+00	    1.640000E-03	    1.640000E-03	    7.900000E+02	
   -2.717768E-02	    1.624058E-02	    7.606489E-03	   -1.000000E+00	    1.640000E-03	    1.640000E-03	    7.900000E+02	
   -2.657619E-02	    1.837247E-02	    8.560339E-03	   -1.000000E+00	    1.640000E-03	    1.640000E-03	    7.900000E+02	
   -2.576687E-02	    2.054784E-02	    9.531494E-03	   -1.000000E+00	    1.640000E-03	    1.640000E-03	    7.900000E+02	
   -2.474298E-02	    2.271898E-02	    1.049915E-02	   -1.000000E+00	    1.640000E-03	    1.640000E-03	    7.900000E+02	
   -2.350935E-02	    2.483666E-02	    1.144181E-02	   -1.000000E+00	    1.640000E-03	    1.640000E-03	    7.900000E+02	
   -2.208260E-02	    2.685405E-02	    1.233901E-02	   -1.000000E+00	    1.640000E-03	    1.640000E-03	    7.900000E+02	
   -2.048979E-02	    2.873047E-02	    1.317295E-02	   -1.000000E+00	    1.640000E-03	    1.640000E-03	    7.900000E+02	
   -1.876589E-02	    3.043430E-02	    1.392981E-02	   -1.000000E+00	    1.640000E-03	    1.640000E-03	    7.900000E+02	
   -1.695042E-02	    3.194464E-02	    1.460044E-02	   -1.000000E+00	    1.640000E-03	    1.640000E-03	    7.900000E+02	
   -1.508396E-02	    3.325156E-02	    1.518057E-02	   -1.000000E+00	    1.640000E-03	    1.640000E-03	    7.900000E+02	
   -1.320506E-02	    3.435522E-02	    1.567032E-02	   -1.000000E+00	    1.640000E-03	    1.640000E-03	    7.900000E+02	
   -1.134791E-02	    3.526406E-02	    1.607350E-02	   -1.000000E+00	    1.640000E-03	    1.640000E-03	    7.900000E+02	
   -9.540903E-03	    3.599261E-02	    1.639660E-02	   -1.000000E+00	    1.640000E-03	    1.640000E-03	    7.900000E+02	
   -7.806105E-03	    3.655929E-02	    1.664781E-02	   -1.000000E+00	    1.640000E-03	    1.640000E-03	    7.900000E+02	
   -6.159364E-03	    3.698441E-02	    1.683616E-02	   -1.000000E+00	    1.640000E-03	    1.640000E-03	    7.900000E+02	
   -4.610911E-03	    3.728859E-02	    1.697082E-02	   -1.000000E+00	    1.640000E-03	    1.640000E-03	    7.900000E+02	
   -3.166220E-03	    3.749164E-02	    1.706059E-02	   -1.000000E+00	    1.640000E-03	    1.640000E-03	    7.900000E+02	
   -1.826942E-03	    3.761180E-02	    1.711355E-02	   -1.000000E+00	    1.640000E-03	    1.640000E-03	    7.900000E+02	
   -5.918184E-04	    3.766531E-02	    1.713692E-02	   -1.000000E+00	    1.640000E-03	    1.640000E-03	    7.900000E+02	
    5.918184E-04	    3.766531E-02	    1.713692E-02	   -1.000000E+00	    1.640000E-03	    1.640000E-03	    7.900000E+02	
    1.826942E-03	    3.761180E-02	    1.711355E-02	   -1.000000E+00	    1.640000E-03	    1.640000E-03	    7.900000E+02	
    3.166220E-03	    3.749164E-02	    1.706059E-02	   -1.000000E+00	    1.640000E-03	    1.640000E-03	    7.900000E+02	
    4.610911E-03	    3.728859E-02	    1.697082E-02	   -1.000000E+00	    1.640000E-03	    1.640000E-03	    7.900000E+02	
    6.159364E-03	    3.698441E-02	    1.683616E-02	   -1.000000E+00	    1.640000E-03	    1.640000E-03	    7.900000E+02	
    7.806105E-03	    3.655929E-02	    1.664781E-02	   -1.000000E+00	    1.640000E-03	    1.640000E-03	    7.900000E+02	
    9.540903E-03	    3.599261E-02	    1.639660E-02	   -1.000000E+00	    1.640000E-03	    1.640000E-03	    7.900000E+02	
    1.134791E-02	    3.526406E-02	    1.607350E-02	   -1.000000E+00	    1.640000E-03	    1.640000E-03	    7.900000E+02	
    1.320506E-02	    3.435522E-02	    1.567032E-02	   -1.000000E+00	    1.640000E-03	    1.640000E-03	    7.900000E+02	
    1.508396E-02	    3.325156E-02	    1.518057E-02	   -1.000000E+00	    1.640000E-03	    1.640000E-03	    7.900000E+02	
    1.695042E-02	    3.194464E-02	    1.460044E-02	   -1.000000E+00	    1.640000E-03	    1.640000E-03	    7.900000E+02	
    1.876589E-02	    3.043430E-02	    1.392981E-02	   -1.000000E+00	    1.640000E-03	    1.640000E-03	    7.900000E+02	
    2.048979E-02	    2.873047E-02	    1.317295E-02	   -1.000000E+00	    1.640000E-03	    1.640000E-03	    7.900000E+02	
    2.208260E-02	    2.685405E-02	    1.233901E-02	   -1.000000E+00	    1.640000E-03	    1.640000E-03	    7.900000E+02	
    2.350935E-02	    2.483666E-02	    1.144181E-02	   -1.000000E+00	    1.640000E-03	    1.640000E-03	    7.900000E+02	
    2.474298E-02	    2.271898E-02	    1.049915E-02	   -1.000000E+00	    1.640000E-03	    1.640000E-03	    7.900000E+02	
    2.576687E-02	    2.054784E-02	    9.531495E-03	   -1.000000E+00	    1.640000E-03	    1.640000E-03	    7.900000E+02	
    2.657619E-02	    1.837247E-02	    8.560339E-03	   -1.000000E+00	    1.640000E-03	    1.640000E-03	    7.900000E+02	
    2.717768E-02	    1.624058E-02	    7.606489E-03	   -1.000000E+00	    1.640000E-03	    1.640000E-03	    7.900000E+02	
    2.758815E-02	    1.419485E-02	    6.688538E-03	   -1.000000E+00	    1.640000E-03	    1.640000E-03	    7.900000E+02	
    2.783188E-02	    1.227031E-02	    5.821765E-03	   -1.000000E+00	    1.640000E-03	    1.640000E-03	    7.900000E+02	
    2.793757E-02	    1.049297E-02	    5.017552E-03	   -1.000000E+00	    1.640000E-03	    1.640000E-03	    7.900000E+02	
    2.793542E-02	    8.879522E-03	    4.283297E-03	   -1.000000E+00	    1.640000E-03	    1.640000E-03	    7.900000E+02	
    2.785457E-02	    7.438005E-03	    3.622713E-03	   -1.000000E+00	    1.640000E-03	    1.640000E-03	    7.900000E+02	
    2.772123E-02	    6.169023E-03	    3.036384E-03	   -1.000000E+00	    1.640000E-03	    1.640000E-03	    7.900000E+02	
    2.755759E-02	    5.067284E-03	    2.522419E-03	   -1.000000E+00	    1.640000E-03	    1.640000E-03	    7.900000E+02	
    2.738133E-02	    4.123154E-03	    2.077112E-03	   -1.000000E+00	    1.640000E-03	    1.640000E-03	    7.900000E+02	
    2.720568E-02	    3.324085E-03	    1.695523E-03	   -1.000000E+00	    1.640000E-03	    1.640000E-03	    7.900000E+02	
    2.703978E-02	    2.655830E-03	    1.371965E-03	   -1.000000E+00	    1.640000E-03	    1.640000E-03	    7.900000E+02	
    2.688932E-02	    2.103412E-03	    1.100376E-03	   -1.000000E+00	    1.640000E-03	    1.640000E-03	    7.900000E+02	
    2.675725E-02	    1.651877E-03	    8.746039E-04	   -1.000000E+00	    1.640000E-03	    1.640000E-03	    7.900000E+02	
    2.664441E-02	    1.286840E-03	    6.886090E-04	   -1.000000E+00	    1.640000E-03	    1.640000E-03	    7.900000E+02	
    2.655019E-02	    9.948728E-04	    5.366083E-04	   -1.000000E+00	    1.640000E-03	    1.640000E-03	    7.900000E+02	
    2.647309E-02	    7.637521E-04	    4.131723E-04	   -1.000000E+00	    1.640000E-03	    1.640000E-03	    7.900000E+02	
    2.641109E-02	    5.826000E-04	    3.132839E-04	   -1.000000E+00	    1.640000E-03	    1.640000E-03	    7.900000E+02	
    2.636199E-02	    4.419358E-04	    2.323619E-04	   -1.000000E+00	    1.640000E-03	    1.640000E-03	    7.900000E+02	
    2.632362E-02	    3.336569E-04	    1.662552E-04	   -1.000000E+00	    1.640000E-03	    1.640000E-03	    7.900000E+02	
    2.629397E-02	    2.509657E-04	    1.112068E-04	   -1.000000E+00	    1.640000E-03	    1.640000E-03	    7.900000E+02	
    2.627130E-02	    1.882596E-04	    6.379191E-05	   -1.000000E+00	    1.640000E-03	    1.640000E-03	    7.900000E+02	
    2.625410E-02	    1.409969E-04	    2.082566E-05	   -1.000000E+00	    1.640000E-03	    1.640000E-03	    7.900000E+02	
    2.624715E-02	    1.219923E-04	    0.000000E+00	   -1.000000E+00	    1.640000E-03	    1.640000E-03	    7.900000E+02	
   -2.624582E-02	    1.224697E-04	    0.000000E+00	   -1.000000E+00	    1.640000E-03	    1.640000E-03	    7.900000E+02	
   -2.625256E-02	    1.415476E-04	    6.636560E-05	   -1.000000E+00	    1.640000E-03	    1.640000E-03	    7.900000E+02	
   -2.626925E-02	    1.889912E-04	    2.033079E-04	   -1.000000E+00	    1.640000E-03	    1.640000E-03	    7.900000E+02	
   -2.629124E-02	    2.519344E-04	    3.544288E-04	   -1.000000E+00	    1.640000E-03	    1.640000E-03	    7.900000E+02	
   -2.631997E-02	    3.349333E-04	    5.298739E-04	   -1.000000E+00	    1.640000E-03	    1.640000E-03	    7.900000E+02	
   -2.635716E-02	    4.436065E-04	    7.405491E-04	   -1.000000E+00	    1.640000E-03	    1.640000E-03	    7.900000E+02	
   -2.640471E-02	    5.847684E-04	    9.984109E-04	   -1.000000E+00	    1.640000E-03	    1.640000E-03	    7.900000E+02	
   -2.646471E-02	    7.665372E-04	    1.316663E-03	   -1.000000E+00	    1.640000E-03	    1.640000E-03	    7.900000E+02	
   -2.653925E-02	    9.984051E-04	    1.709861E-03	   -1.000000E+00	    1.640000E-03	    1.640000E-03	    7.900000E+02	
   -2.663020E-02	    1.291253E-03	    2.193931E-03	   -1.000000E+00	    1.640000E-03	    1.640000E-03	    7.900000E+02	
   -2.673894E-02	    1.657290E-03	    2.786073E-03	   -1.000000E+00	    1.640000E-03	    1.640000E-03	    7.900000E+02	
   -2.686590E-02	    2.109911E-03	    3.504567E-03	   -1.000000E+00	    1.640000E-03	    1.640000E-03	    7.900000E+02	
   -2.701003E-02	    2.663426E-03	    4.368441E-03	   -1.000000E+00	    1.640000E-03	    1.640000E-03	    7.900000E+02	
   -2.716823E-02	    3.332671E-03	    5.396996E-03	   -1.000000E+00	    1.640000E-03	    1.640000E-03	    7.900000E+02	
   -2.733460E-02	    4.132436E-03	    6.609130E-03	   -1.000000E+00	    1.640000E-03	    1.640000E-03	    7.900000E+02	
   -2.749981E-02	    5.076708E-03	    8.022420E-03	   -1.000000E+00	    1.640000E-03	    1.640000E-03	    7.900000E+02	
   -2.765051E-02	    6.177680E-03	    9.651907E-03	   -1.000000E+00	    1.640000E-03	    1.640000E-03	    7.900000E+02	
   -2.776894E-02	    7.444535E-03	    1.150856E-02	   -1.000000E+00	    1.640000E-03	    1.640000E-03	    7.900000E+02	
   -2.783296E-02	    8.882025E-03	    1.359742E-02	   -1.000000E+00	    1.640000E-03	    1.640000E-03	    7.900000E+02	
   -2.781656E-02	    1.048893E-02	    1.591556E-02	   -1.000000E+00	    1.640000E-03	    1.640000E-03	    7.900000E+02	
   -2.769101E-02	    1.225660E-02	    1.845010E-02	   -1.000000E+00	    1.640000E-03	    1.640000E-03	    7.900000E+02	
   -2.742674E-02	    1.416774E-02	    2.117655E-02	   -1.000000E+00	    1.640000E-03	    1.640000E-03	    7.900000E+02	
   -2.699591E-02	    1.619592E-02	    2.405802E-02	   -1.000000E+00	    1.640000E-03	    1.640000E-03	    7.900000E+02	
   -2.637528E-02	    1.830587E-02	    2.704567E-02	   -1.000000E+00	    1.640000E-03	    1.640000E-03	    7.900000E+02	
   -2.554922E-02	    2.045504E-02	    3.008071E-02	   -1.000000E+00	    1.640000E-03	    1.640000E-03	    7.900000E+02	
   -2.451210E-02	    2.259621E-02	    3.309798E-02	   -1.000000E+00	    1.640000E-03	    1.640000E-03	    7.900000E+02	
   -2.326974E-02	    2.468098E-02	    3.603076E-02	   -1.000000E+00	    1.640000E-03	    1.640000E-03	    7.900000E+02	
   -2.183944E-02	    2.666365E-02	    3.881609E-02	   -1.000000E+00	    1.640000E-03	    1.640000E-03	    7.900000E+02	
   -2.024860E-02	    2.850483E-02	    4.139981E-02	   -1.000000E+00	    1.640000E-03	    1.640000E-03	    7.900000E+02	
   -1.853206E-02	    3.017422E-02	    4.374032E-02	   -1.000000E+00	    1.640000E-03	    1.640000E-03	    7.900000E+02	
   -1.672887E-02	    3.165208E-02	    4.581074E-02	   -1.000000E+00	    1.640000E-03	    1.640000E-03	    7.900000E+02	
   -1.487885E-02	    3.292942E-02	    4.759910E-02	   -1.000000E+00	    1.640000E-03	    1.640000E-03	    7.900000E+02	
   -1.301962E-02	    3.400704E-02	    4.910697E-02	   -1.000000E+00	    1.640000E-03	    1.640000E-03	    7.900000E+02	
   -1.118439E-02	    3.489370E-02	    5.034700E-02	   -1.000000E+00	    1.640000E-03	    1.640000E-03	    7.900000E+02	
   -9.400623E-03	    3.560400E-02	    5.133985E-02	   -1.000000E+00	    1.640000E-03	    1.640000E-03	    7.900000E+02	
   -7.689552E-03	    3.615620E-02	    5.211128E-02	   -1.000000E+00	    1.640000E-03	    1.640000E-03	    7.900000E+02	
   -6.066345E-03	    3.657028E-02	    5.268937E-02	   -1.000000E+00	    1.640000E-03	    1.640000E-03	    7.900000E+02	
   -4.540713E-03	    3.686648E-02	    5.310251E-02	   -1.000000E+00	    1.640000E-03	    1.640000E-03	    7.900000E+02	
   -3.117757E-03	    3.706416E-02	    5.337783E-02	   -1.000000E+00	    1.640000E-03	    1.640000E-03	    7.900000E+02	
   -1.798891E-03	    3.718111E-02	    5.354022E-02	   -1.000000E+00	    1.640000E-03	    1.640000E-03	    7.900000E+02	
   -5.827187E-04	    3.723320E-02	    5.361183E-02	   -1.000000E+00	    1.640000E-03	    1.640000E-03	    7.900000E+02	
    5.827187E-04	    3.723320E-02	    5.361183E-02	   -1.000000E+00	    1.640000E-03	    1.640000E-03	    7.900000E+02	
    1.798891E-03	    3.718111E-02	    5.354022E-02	   -1.000000E+00	    1.640000E-03	    1.640000E-03	    7.900000E+02	
    3.117757E-03	    3.706416E-02	    5.337783E-02	   -1.000000E+00	    1.640000E-03	    1.640000E-03	    7.900000E+02	
    4.540713E-03	    3.686648E-02	    5.310251E-02	   -1.000000E+00	    1.640000E-03	    1.640000E-03	    7.900000E+02	
    6.066345E-03	    3.657028E-02	    5.268937E-02	   -1.000000E+00	    1.640000E-03	    1.640000E-03	    7.900000E+02	
    7.689552E-03	    3.615620E-02	    5.211128E-02	   -1.000000E+00	    1.640000E-03	    1.640000E-03	    7.900000E+02	
    9.400623E-03	    3.560400E-02	    5.133985E-02	   -1.000000E+00	    1.640000E-03	    1.640000E-03	    7.900000E+02	
    1.118439E-02	    3.489370E-02	    5.034700E-02	   -1.000000E+00	    1.640000E-03	    1.640000E-03	    7.900000E+02	
    1.301962E-02	    3.400704E-02	    4.910697E-02	   -1.000000E+00	    1.640000E-03	    1.640000E-03	    7.900000E+02	
    1.487885E-02	    3.292942E-02	    4.759910E-02	   -1.000000E+00	    1.640000E-03	    1.640000E-03	    7.900000E+02	
    1.672887E-02	    3.165208E-02	    4.581074E-02	   -1.000000E+00	    1.640000E-03	    1.640000E-03	    7.900000E+02	
    1.853206E-02	    3.017422E-02	    4.374032E-02	   -1.000000E+00	    1.640000E-03	    1.640000E-03	    7.900000E+02	
    2.024860E-02	    2.850483E-02	    4.139981E-02	   -1.000000E+00	    1.640000E-03	    1.640000E-03	    7.900000E+02	
    2.183944E-02	    2.666365E-02	    3.881609E-02	   -1.000000E+00	    1.640000E-03	    1.640000E-03	    7.900000E+02	
    2.326974E-02	    2.468098E-02	    3.603076E-02	   -1.000000E+00	    1.640000E-03	    1.640000E-03	    7.900000E+02	
    2.451210E-02	    2.259621E-02	    3.309798E-02	   -1.000000E+00	    1.640000E-03	    1.640000E-03	    7.900000E+02	
    2.554922E-02	    2.045504E-02	    3.008071E-02	   -1.000000E+00	    1.640000E-03	    1.640000E-03	    7.900000E+02	
    2.637528E-02	    1.830587E-02	    2.704567E-02	   -1.000000E+00	    1.640000E-03	    1.640000E-03	    7.900000E+02	
    2.699591E-02	    1.619592E-02	    2.405802E-02	   -1.000000E+00	    1.640000E-03	    1.640000E-03	    7.900000E+02	
    2.742674E-02	    1.416774E-02	    2.117655E-02	   -1.000000E+00	    1.640000E-03	    1.640000E-03	    7.900000E+02	
    2.769101E-02	    1.225660E-02	    1.845010E-02	   -1.000000E+00	    1.640000E-03	    1.640000E-03	    7.900000E+02	
    2.781656E-02	    1.048893E-02	    1.591556E-02	   -1.000000E+00	    1.640000E-03	    1.640000E-03	    7.900000E+02	
    2.783296E-02	    8.882025E-03	    1.359742E-02	   -1.000000E+00	    1.640000E-03	    1.640000E-03	    7.900000E+02	
    2.776894E-02	    7.444535E-03	    1.150856E-02	   -1.000000E+00	    1.640000E-03	    1.640000E-03	    7.900000E+02	
    2.765051E-02	    6.177680E-03	    9.651912E-03	   -1.000000E+00	    1.640000E-03	    1.640000E-03	    7.900000E+02	
    2.749981E-02	    5.076708E-03	    8.022425E-03	   -1.000000E+00	    1.640000E-03	    1.640000E-03	    7.900000E+02	
    2.733460E-02	    4.132436E-03	    6.609136E-03	   -1.000000E+00	    1.640000E-03	    1.640000E-03	    7.900000E+02	
    2.716823E-02	    3.332671E-03	    5.397003E-03	   -1.000000E+00	    1.640000E-03	    1.640000E-03	    7.900000E+02	
    2.701003E-02	    2.663426E-03	    4.368450E-03	   -1.000000E+00	    1.640000E-03	    1.640000E-03	    7.900000E+02	
    2.686590E-02	    2.109911E-03	    3.504578E-03	   -1.000000E+00	    1.640000E-03	    1.640000E-03	    7.900000E+02	
    2.673894E-02	    1.657290E-03	    2.786087E-03	   -1.000000E+00	    1.640000E-03	    1.640000E-03	    7.900000E+02	
    2.663020E-02	    1.291253E-03	    2.193948E-03	   -1.000000E+00	    1.640000E-03	    1.640000E-03	    7.900000E+02	
    2.653925E-02	    9.984051E-04	    1.709881E-03	   -1.000000E+00	    1.640000E-03	    1.640000E-03	    7.900000E+02	
    2.646471E-02	    7.665372E-04	    1.316687E-03	   -1.000000E+00	    1.640000E-03	    1.640000E-03	    7.900000E+02	
    2.640471E-02	    5.847684E-04	    9.984389E-04	   -1.000000E+00	    1.640000E-03	    1.640000E-03	    7.900000E+02	
    2.635716E-02	    4.436065E-04	    7.405804E-04	   -1.000000E+00	    1.640000E-03	    1.640000E-03	    7.900000E+02	
    2.631997E-02	    3.349333E-04	    5.299065E-04	   -1.000000E+00	    1.640000E-03	    1.640000E-03	    7.900000E+02	
    2.629124E-02	    2.519344E-04	    3.544588E-04	   -1.000000E+00	    1.640000E-03	    1.640000E-03	    7.900000E+02	
    2.626925E-02	    1.889912E-04	    2.033298E-04	   -1.000000E+00	    1.640000E-03	    1.640000E-03	    7.900000E+02	
    2.625256E-02	    1.415476E-04	    6.637375E-05	   -1.000000E+00	    1.640000E-03	    1.640000E-03	    7.900000E+02	
    2.624582E-02	    1.224697E-04	    0.000000E+00	   -1.000000E+00	    1.640000E-03	    1.640000E-03	    7.900000E+02	
   -2.624424E-02	    1.230174E-04	    0.000000E+00	   -1.000000E+00	    1.640000E-03	    1.640000E-03	    7.900000E+02	
   -2.625073E-02	    1.421793E-04	    1.203741E-04	   -1.000000E+00	    1.640000E-03	    1.640000E-03	    7.900000E+02	
   -2.626680E-02	    1.898302E-04	    3.687903E-04	   -1.000000E+00	    1.640000E-03	    1.640000E-03	    7.900000E+02	