Title="Fields"
Variables="X""Y""Velocity""Phi""Effective Viscosity""Dynamic Viscosity""Density"
Zone I=102 J=102 F=POINT
   -2.229652E-02	    9.880290E-05	    0.000000E+00	   -1.000000E+00	    1.750000E-03	    1.750000E-03	    8.040000E+02	
   -2.229039E-02	    1.108850E-04	    0.000000E+00	   -1.000000E+00	    1.750000E-03	    1.750000E-03	    8.040000E+02	
   -2.227579E-02	    1.396043E-04	    0.000000E+00	   -1.000000E+00	    1.750000E-03	    1.750000E-03	    8.040000E+02	
   -2.225743E-02	    1.755701E-04	    0.000000E+00	   -1.000000E+00	    1.750000E-03	    1.750000E-03	    8.040000E+02	
   -2.223443E-02	    2.204184E-04	    0.000000E+00	   -1.000000E+00	    1.750000E-03	    1.750000E-03	    8.040000E+02	
   -2.220574E-02	    2.760669E-04	    0.000000E+00	   -1.000000E+00	    1.750000E-03	    1.750000E-03	    8.040000E+02	
   -2.217009E-02	    3.447305E-04	    0.000000E+00	   -1.000000E+00	    1.750000E-03	    1.750000E-03	    8.040000E+02	
   -2.212601E-02	    4.289255E-04	    0.000000E+00	   -1.000000E+00	    1.750000E-03	    1.750000E-03	    8.040000E+02	
   -2.207177E-02	    5.314574E-04	    0.000000E+00	   -1.000000E+00	    1.750000E-03	    1.750000E-03	    8.040000E+02	
   -2.200540E-02	    6.553885E-04	    0.000000E+00	   -1.000000E+00	    1.750000E-03	    1.750000E-03	    8.040000E+02	
   -2.192464E-02	    8.039800E-04	    0.000000E+00	   -1.000000E+00	    1.750000E-03	    1.750000E-03	    8.040000E+02	
   -2.182693E-02	    9.806051E-04	    0.000000E+00	   -1.000000E+00	    1.750000E-03	    1.750000E-03	    8.040000E+02	
   -2.170945E-02	    1.188632E-03	    0.000000E+00	   -1.000000E+00	    1.750000E-03	    1.750000E-03	    8.040000E+02	
   -2.156908E-02	    1.431273E-03	    0.000000E+00	   -1.000000E+00	    1.750000E-03	    1.750000E-03	    8.040000E+02	
   -2.140244E-02	    1.711411E-03	    0.000000E+00	   -1.000000E+00	    1.750000E-03	    1.750000E-03	    8.040000E+02	
   -2.120598E-02	    2.031398E-03	    0.000000E+00	   -1.000000E+00	    1.750000E-03	    1.750000E-03	    8.040000E+02	
   -2.097597E-02	    2.392850E-03	    0.000000E+00	   -1.000000E+00	    1.750000E-03	    1.750000E-03	    8.040000E+02	
   -2.070868E-02	    2.796438E-03	    0.000000E+00	   -1.000000E+00	    1.750000E-03	    1.750000E-03	    8.040000E+02	
   -2.040046E-02	    3.241707E-03	    0.000000E+00	   -1.000000E+00	    1.750000E-03	    1.750000E-03	    8.040000E+02	
   -2.004794E-02	    3.726935E-03	    0.000000E+00	   -1.000000E+00	    1.750000E-03	    1.750000E-03	    8.040000E+02	
   -1.964817E-02	    4.249046E-03	    0.000000E+00	   -1.000000E+00	    1.750000E-03	    1.750000E-03	    8.040000E+02	
   -1.919891E-02	    4.803611E-03	    0.000000E+00	   -1.000000E+00	    1.750000E-03	    1.750000E-03	    8.040000E+02	
   -1.869876E-02	    5.384927E-03	    0.000000E+00	   -1.000000E+00	    1.750000E-03	    1.750000E-03	    8.040000E+02	
   -1.814738E-02	    5.986194E-03	    0.000000E+00	   -1.000000E+00	    1.750000E-03	    1.750000E-03	    8.040000E+02	
   -1.754565E-02	    6.599777E-03	    0.000000E+00	   -1.000000E+00	    1.750000E-03	    1.750000E-03	    8.040000E+02	
   -1.689572E-02	    7.217528E-03	    0.000000E+00	   -1.000000E+00	    1.750000E-03	    1.750000E-03	    8.040000E+02	
   -1.620107E-02	    7.831161E-03	    0.000000E+00	   -1.000000E+00	    1.750000E-03	    1.750000E-03	    8.040000E+02	
   -1.546638E-02	    8.432625E-03	    0.000000E+00	   -1.000000E+00	    1.750000E-03	    1.750000E-03	    8.040000E+02	
   -1.469742E-02	    9.014460E-03	    0.000000E+00	   -1.000000E+00	    1.750000E-03	    1.750000E-03	    8.040000E+02	
   -1.390078E-02	    9.570098E-03	    0.000000E+00	   -1.000000E+00	    1.750000E-03	    1.750000E-03	    8.040000E+02	
   -1.308362E-02	    1.009409E-02	    0.000000E+00	   -1.000000E+00	    1.750000E-03	    1.750000E-03	    8.040000E+02	
   -1.225338E-02	    1.058222E-02	    0.000000E+00	   -1.000000E+00	    1.750000E-03	    1.750000E-03	    8.040000E+02	
   -1.141746E-02	    1.103160E-02	    0.000000E+00	   -1.000000E+00	    1.750000E-03	    1.750000E-03	    8.040000E+02	
   -1.058297E-02	    1.144058E-02	    0.000000E+00	   -1.000000E+00	    1.750000E-03	    1.750000E-03	    8.040000E+02	
   -9.756528E-03	    1.180867E-02	    0.000000E+00	   -1.000000E+00	    1.750000E-03	    1.750000E-03	    8.040000E+02	
   -8.944052E-03	    1.213638E-02	    0.000000E+00	   -1.000000E+00	    1.750000E-03	    1.750000E-03	    8.040000E+02	
   -8.150681E-03	    1.242507E-02	    0.000000E+00	   -1.000000E+00	    1.750000E-03	    1.750000E-03	    8.040000E+02	
   -7.380711E-03	    1.267673E-02	    0.000000E+00	   -1.000000E+00	    1.750000E-03	    1.750000E-03	    8.040000E+02	
   -6.637591E-03	    1.289381E-02	    0.000000E+00	   -1.000000E+00	    1.750000E-03	    1.750000E-03	    8.040000E+02	
   -5.923952E-03	    1.307906E-02	    0.000000E+00	   -1.000000E+00	    1.750000E-03	    1.750000E-03	    8.040000E+02	
   -5.241669E-03	    1.323539E-02	    0.000000E+00	   -1.000000E+00	    1.750000E-03	    1.750000E-03	    8.040000E+02	
   -4.591935E-03	    1.336573E-02	    0.000000E+00	   -1.000000E+00	    1.750000E-03	    1.750000E-03	    8.040000E+02	
   -3.975355E-03	    1.347297E-02	    0.000000E+00	   -1.000000E+00	    1.750000E-03	    1.750000E-03	    8.040000E+02	
   -3.392029E-03	    1.355988E-02	    0.000000E+00	   -1.000000E+00	    1.750000E-03	    1.750000E-03	    8.040000E+02	
   -2.841645E-03	    1.362904E-02	    0.000000E+00	   -1.000000E+00	    1.750000E-03	    1.750000E-03	    8.040000E+02	
   -2.323556E-03	    1.368285E-02	    0.000000E+00	   -1.000000E+00	    1.750000E-03	    1.750000E-03	    8.040000E+02	
   -1.836860E-03	    1.372349E-02	    0.000000E+00	   -1.000000E+00	    1.750000E-03	    1.750000E-03	    8.040000E+02	
   -1.380456E-03	    1.375292E-02	    0.000000E+00	   -1.000000E+00	    1.750000E-03	    1.750000E-03	    8.040000E+02	
   -9.531102E-04	    1.377289E-02	    0.000000E+00	   -1.000000E+00	    1.750000E-03	    1.750000E-03	    8.040000E+02	
   -5.534930E-04	    1.378493E-02	    0.000000E+00	   -1.000000E+00	    1.750000E-03	    1.750000E-03	    8.040000E+02	
   -1.802226E-04	    1.379041E-02	    0.000000E+00	   -1.000000E+00	    1.750000E-03	    1.750000E-03	    8.040000E+02	
    1.802226E-04	    1.379041E-02	    0.000000E+00	   -1.000000E+00	    1.750000E-03	    1.750000E-03	    8.040000E+02	
    5.534930E-04	    1.378493E-02	    0.000000E+00	   -1.000000E+00	    1.750000E-03	    1.750000E-03	    8.040000E+02	
    9.531102E-04	    1.377289E-02	    0.000000E+00	   -1.000000E+00	    1.750000E-03	    1.750000E-03	    8.040000E+02	
    1.380456E-03	    1.375292E-02	    0.000000E+00	   -1.000000E+00	    1.750000E-03	    1.750000E-03	    8.040000E+02	
    1.836860E-03	    1.372349E-02	    0.000000E+00	   -1.000000E+00	    1.750000E-03	    1.750000E-03	    8.040000E+02	
    2.323556E-03	    1.368285E-02	    0.000000E+00	   -1.000000E+00	    1.750000E-03	    1.750000E-03	    8.040000E+02	
    2.841645E-03	    1.362904E-02	    0.000000E+00	   -1.000000E+00	    1.750000E-03	    1.750000E-03	    8.040000E+02	
    3.392029E-03	    1.355988E-02	    0.000000E+00	   -1.000000E+00	    1.750000E-03	    1.750000E-03	    8.040000E+02	
    3.975355E-03	    1.347297E-02	    0.000000E+00	   -1.000000E+00	    1.750000E-03	    1.750000E-03	    8.040000E+02	
    4.591935E-03	    1.336573E-02	    0.000000E+00	   -1.000000E+00	    1.750000E-03	    1.750000E-03	    8.040000E+02	
    5.241669E-03	    1.323539E-02	    0.000000E+00	   -1.000000E+00	    1.750000E-03	    1.750000E-03	    8.040000E+02	
    5.923952E-03	    1.307906E-02	    0.000000E+00	   -1.000000E+00	    1.750000E-03	    1.750000E-03	    8.040000E+02	
    6.637591E-03	    1.289381E-02	    0.000000E+00	   -1.000000E+00	    1.750000E-03	    1.750000E-03	    8.040000E+02	
    7.380711E-03	    1.267673E-02	    0.000000E+00	   -1.000000E+00	    1.750000E-03	    1.750000E-03	    8.040000E+02	
    8.150681E-03	    1.242507E-02	    0.000000E+00	   -1.000000E+00	    1.750000E-03	    1.750000E-03	    8.040000E+02	
    8.944052E-03	    1.213638E-02	    0.000000E+00	   -1.000000E+00	    1.750000E-03	    1.750000E-03	    8.040000E+02	
    9.756528E-03	    1.180867E-02	    0.000000E+00	   -1.000000E+00	    1.750000E-03	    1.750000E-03	    8.040000E+02	
    1.058297E-02	    1.144058E-02	    0.000000E+00	   -1.000000E+00	    1.750000E-03	    1.750000E-03	    8.040000E+02	
    1.141746E-02	    1.103160E-02	    0.000000E+00	   -1.000000E+00	    1.750000E-03	    1.750000E-03	    8.040000E+02	
    1.225338E-02	    1.058222E-02	    0.000000E+00	   -1.000000E+00	    1.750000E-03	    1.750000E-03	    8.040000E+02	
    1.308362E-02	    1.009409E-02	    0.000000E+00	   -1.000000E+00	    1.750000E-03	    1.750000E-03	    8.040000E+02	
    1.390078E-02	    9.570098E-03	    0.000000E+00	   -1.000000E+00	    1.750000E-03	    1.750000E-03	    8.040000E+02	
    1.469742E-02	    9.014460E-03	    0.000000E+00	   -1.000000E+00	    1.750000E-03	    1.750000E-03	    8.040000E+02	
    1.546638E-02	    8.432625E-03	    0.000000E+00	   -1.000000E+00	    1.750000E-03	    1.750000E-03	    8.040000E+02	
    1.620107E-02	    7.831161E-03	    0.000000E+00	   -1.000000E+00	    1.750000E-03	    1.750000E-03	    8.040000E+02	
    1.689572E-02	    7.217528E-03	    0.000000E+00	   -1.000000E+00	    1.750000E-03	    1.750000E-03	    8.040000E+02	
    1.754565E-02	    6.599777E-03	    0.000000E+00	   -1.000000E+00	    1.750000E-03	    1.750000E-03	    8.040000E+02	
    1.814738E-02	    5.986194E-03	    0.000000E+00	   -1.000000E+00	    1.750000E-03	    1.750000E-03	    8.040000E+02	
    1.869876E-02	    5.384927E-03	    0.000000E+00	   -1.000000E+00	    1.750000E-03	    1.750000E-03	    8.040000E+02	
    1.919891E-02	    4.803611E-03	    0.000000E+00	   -1.000000E+00	    1.750000E-03	    1.750000E-03	    8.040000E+02	
    1.964817E-02	    4.249046E-03	    0.000000E+00	   -1.000000E+00	    1.750000E-03	    1.750000E-03	    8.040000E+02	
    2.004794E-02	    3.726935E-03	    0.000000E+00	   -1.000000E+00	    1.750000E-03	    1.750000E-03	    8.040000E+02	
    2.040046E-02	    3.241707E-03	    0.000000E+00	   -1.000000E+00	    1.750000E-03	    1.750000E-03	    8.040000E+02	
    2.070868E-02	    2.796438E-03	    0.000000E+00	   -1.000000E+00	    1.750000E-03	    1.750000E-03	    8.040000E+02	
    2.097597E-02	    2.392850E-03	    0.000000E+00	   -1.000000E+00	    1.750000E-03	    1.750000E-03	    8.040000E+02	
    2.120598E-02	    2.031398E-03	    0.000000E+00	   -1.000000E+00	    1.750000E-03	    1.750000E-03	    8.040000E+02	
    2.140244E-02	    1.711411E-03	    0.000000E+00	   -1.000000E+00	    1.750000E-03	    1.750000E-03	    8.040000E+02	
    2.156908E-02	    1.431273E-03	    0.000000E+00	   -1.000000E+00	    1.750000E-03	    1.750000E-03	    8.040000E+02	
    2.170945E-02	    1.188632E-03	    0.000000E+00	   -1.000000E+00	    1.750000E-03	    1.750000E-03	    8.040000E+02	
    2.182693E-02	    9.806051E-04	    0.000000E+00	   -1.000000E+00	    1.750000E-03	    1.750000E-03	    8.040000E+02	
    2.192464E-02	    8.039800E-04	    0.000000E+00	   -1.000000E+00	    1.750000E-03	    1.750000E-03	    8.040000E+02	
    2.200540E-02	    6.553885E-04	    0.000000E+00	   -1.000000E+00	    1.750000E-03	    1.750000E-03	    8.040000E+02	
    2.207177E-02	    5.314574E-04	    0.000000E+00	   -1.000000E+00	    1.750000E-03	    1.750000E-03	    8.040000E+02	
    2.212601E-02	    4.289255E-04	    0.000000E+00	   -1.000000E+00	    1.750000E-03	    1.750000E-03	    8.040000E+02	
    2.217009E-02	    3.447305E-04	    0.000000E+00	   -1.000000E+00	    1.750000E-03	    1.750000E-03	    8.040000E+02	
    2.220574E-02	    2.760669E-04	    0.000000E+00	   -1.000000E+00	    1.750000E-03	    1.750000E-03	    8.040000E+02	
    2.223443E-02	    2.204184E-04	    0.000000E+00	   -1.000000E+00	    1.750000E-03	    1.750000E-03	    8.040000E+02	
    2.225743E-02	    1.755701E-04	    0.000000E+00	   -1.000000E+00	    1.750000E-03	    1.750000E-03	    8.040000E+02	
    2.227579E-02	    1.396043E-04	    0.000000E+00	   -1.000000E+00	    1.750000E-03	    1.750000E-03	    8.040000E+02	
    2.229039E-02	    1.108850E-04	    0.000000E+00	   -1.000000E+00	    1.750000E-03	    1.750000E-03	    8.040000E+02	
    2.229652E-02	    9.880290E-05	    0.000000E+00	   -1.000000E+00	    1.750000E-03	    1.750000E-03	    8.040000E+02	
   -2.229630E-02	    9.869115E-05	    0.000000E+00	   -1.000000E+00	    1.750000E-03	    1.750000E-03	    8.040000E+02	
   -2.229015E-02	    1.107594E-04	    8.744350E-07	   -1.000000E+00	    1.750000E-03	    1.750000E-03	    8.040000E+02	
   -2.227547E-02	    1.394458E-04	    2.606791E-06	   -1.000000E+00	    1.750000E-03	    1.750000E-03	    8.040000E+02	
   -2.225704E-02	    1.753702E-04	    4.455398E-06	   -1.000000E+00	    1.750000E-03	    1.750000E-03	    8.040000E+02	
   -2.223394E-02	    2.201664E-04	    6.524740E-06	   -1.000000E+00	    1.750000E-03	    1.750000E-03	    8.040000E+02	
   -2.220512E-02	    2.757498E-04	    8.930552E-06	   -1.000000E+00	    1.750000E-03	    1.750000E-03	    8.040000E+02	
   -2.216932E-02	    3.443322E-04	    1.181261E-05	   -1.000000E+00	    1.750000E-03	    1.750000E-03	    8.040000E+02	
   -2.212506E-02	    4.284262E-04	    1.534600E-05	   -1.000000E+00	    1.750000E-03	    1.750000E-03	    8.040000E+02	
   -2.207060E-02	    5.308334E-04	    1.975287E-05	   -1.000000E+00	    1.750000E-03	    1.750000E-03	    8.040000E+02	
   -2.200396E-02	    6.546109E-04	    2.531475E-05	   -1.000000E+00	    1.750000E-03	    1.750000E-03	    8.040000E+02	
   -2.192288E-02	    8.030141E-04	    3.238447E-05	   -1.000000E+00	    1.750000E-03	    1.750000E-03	    8.040000E+02	
   -2.182480E-02	    9.794098E-04	    4.139615E-05	   -1.000000E+00	    1.750000E-03	    1.750000E-03	    8.040000E+02	
   -2.170688E-02	    1.187158E-03	    5.287092E-05	   -1.000000E+00	    1.750000E-03	    1.750000E-03	    8.040000E+02	
   -2.156600E-02	    1.429464E-03	    6.741553E-05	   -1.000000E+00	    1.750000E-03	    1.750000E-03	    8.040000E+02	
   -2.139879E-02	    1.709200E-03	    8.571111E-05	   -1.000000E+00	    1.750000E-03	    1.750000E-03	    8.040000E+02	
   -2.120168E-02	    2.028709E-03	    1.084895E-04	   -1.000000E+00	    1.750000E-03	    1.750000E-03	    8.040000E+02	
   -2.097097E-02	    2.389596E-03	    1.364959E-04	   -1.000000E+00	    1.750000E-03	    1.750000E-03	    8.040000E+02	
   -2.070291E-02	    2.792523E-03	    1.704391E-04	   -1.000000E+00	    1.750000E-03	    1.750000E-03	    8.040000E+02	
   -2.039387E-02	    3.237026E-03	    2.109310E-04	   -1.000000E+00	    1.750000E-03	    1.750000E-03	    8.040000E+02	
   -2.004049E-02	    3.721373E-03	    2.584225E-04	   -1.000000E+00	    1.750000E-03	    1.750000E-03	    8.040000E+02	
   -1.963985E-02	    4.242484E-03	    3.131409E-04	   -1.000000E+00	    1.750000E-03	    1.750000E-03	    8.040000E+02	
   -1.918972E-02	    4.795927E-03	    3.750397E-04	   -1.000000E+00	    1.750000E-03	    1.750000E-03	    8.040000E+02	
   -1.868872E-02	    5.376002E-03	    4.437657E-04	   -1.000000E+00	    1.750000E-03	    1.750000E-03	    8.040000E+02	
   -1.813655E-02	    5.975914E-03	    5.186520E-04	   -1.000000E+00	    1.750000E-03	    1.750000E-03	    8.040000E+02	
   -1.753410E-02	    6.588040E-03	    5.987373E-04	   -1.000000E+00	    1.750000E-03	    1.750000E-03	    8.040000E+02	
   -1.688356E-02	    7.204250E-03	    6.828125E-04	   -1.000000E+00	    1.750000E-03	    1.750000E-03	    8.040000E+02	
   -1.618842E-02	    7.816275E-03	    7.694891E-04	   -1.000000E+00	    1.750000E-03	    1.750000E-03	    8.040000E+02	
   -1.545339E-02	    8.416091E-03	    8.572811E-04	   -1.000000E+00	    1.750000E-03	    1.750000E-03	    8.040000E+02	
   -1.468422E-02	    8.996264E-03	    9.446922E-04	   -1.000000E+00	    1.750000E-03	    1.750000E-03	    8.040000E+02	
   -1.388752E-02	    9.550251E-03	    1.030299E-03	   -1.000000E+00	    1.750000E-03	    1.750000E-03	    8.040000E+02	
   -1.307046E-02	    1.007263E-02	    1.112821E-03	   -1.000000E+00	    1.750000E-03	    1.750000E-03	    8.040000E+02	
   -1.224046E-02	    1.055921E-02	    1.191173E-03	   -1.000000E+00	    1.750000E-03	    1.750000E-03	    8.040000E+02	
   -1.140491E-02	    1.100712E-02	    1.264497E-03	   -1.000000E+00	    1.750000E-03	    1.750000E-03	    8.040000E+02	
   -1.057091E-02	    1.141473E-02	    1.332178E-03	   -1.000000E+00	    1.750000E-03	    1.750000E-03	    8.040000E+02	
   -9.745050E-03	    1.178155E-02	    1.393831E-03	   -1.000000E+00	    1.750000E-03	    1.750000E-03	    8.040000E+02	
   -8.933237E-03	    1.210812E-02	    1.449289E-03	   -1.000000E+00	    1.750000E-03	    1.750000E-03	    8.040000E+02	
   -8.140591E-03	    1.239578E-02	    1.498572E-03	   -1.000000E+00	    1.750000E-03	    1.750000E-03	    8.040000E+02	
   -7.371390E-03	    1.264653E-02	    1.541849E-03	   -1.000000E+00	    1.750000E-03	    1.750000E-03	    8.040000E+02	
   -6.629065E-03	    1.286281E-02	    1.579410E-03	   -1.000000E+00	    1.750000E-03	    1.750000E-03	    8.040000E+02	
   -5.916234E-03	    1.304737E-02	    1.611629E-03	   -1.000000E+00	    1.750000E-03	    1.750000E-03	    8.040000E+02	
   -5.234758E-03	    1.320311E-02	    1.638932E-03	   -1.000000E+00	    1.750000E-03	    1.750000E-03	    8.040000E+02	
   -4.585821E-03	    1.333297E-02	    1.661775E-03	   -1.000000E+00	    1.750000E-03	    1.750000E-03	    8.040000E+02	
   -3.970020E-03	    1.343980E-02	    1.680622E-03	   -1.000000E+00	    1.750000E-03	    1.750000E-03	    8.040000E+02	
   -3.387448E-03	    1.352638E-02	    1.695928E-03	   -1.000000E+00	    1.750000E-03	    1.750000E-03	    8.040000E+02	
   -2.837787E-03	    1.359528E-02	    1.708129E-03	   -1.000000E+00	    1.750000E-03	    1.750000E-03	    8.040000E+02	
   -2.320389E-03	    1.364888E-02	    1.717633E-03	   -1.000000E+00	    1.750000E-03	    1.750000E-03	    8.040000E+02	
   -1.834349E-03	    1.368936E-02	    1.724815E-03	   -1.000000E+00	    1.750000E-03	    1.750000E-03	    8.040000E+02	
   -1.378565E-03	    1.371868E-02	    1.730016E-03	   -1.000000E+00	    1.750000E-03	    1.750000E-03	    8.040000E+02	
   -9.518026E-04	    1.373857E-02	    1.733543E-03	   -1.000000E+00	    1.750000E-03	    1.750000E-03	    8.040000E+02	
   -5.527329E-04	    1.375057E-02	    1.735666E-03	   -1.000000E+00	    1.750000E-03	    1.750000E-03	    8.040000E+02	
   -1.799751E-04	    1.375603E-02	    1.736624E-03	   -1.000000E+00	    1.750000E-03	    1.750000E-03	    8.040000E+02	
    1.799751E-04	    1.375603E-02	    1.736624E-03	   -1.000000E+00	    1.750000E-03	    1.750000E-03	    8.040000E+02	
    5.527329E-04	    1.375057E-02	    1.735666E-03	   -1.000000E+00	    1.750000E-03	    1.750000E-03	    8.040000E+02	
    9.518026E-04	    1.373857E-02	    1.733543E-03	   -1.000000E+00	    1.750000E-03	    1.750000E-03	    8.040000E+02	
    1.378565E-03	    1.371868E-02	    1.730016E-03	   -1.000000E+00	    1.750000E-03	    1.750000E-03	    8.040000E+02	
    1.834349E-03	    1.368936E-02	    1.724815E-03	   -1.000000E+00	    1.750000E-03	    1.750000E-03	    8.040000E+02	
    2.320389E-03	    1.364888E-02	    1.717633E-03	   -1.000000E+00	    1.750000E-03	    1.750000E-03	    8.040000E+02	
    2.837787E-03	    1.359528E-02	    1.708129E-03	   -1.000000E+00	    1.750000E-03	    1.750000E-03	    8.040000E+02	
    3.387448E-03	    1.352638E-02	    1.695928E-03	   -1.000000E+00	    1.750000E-03	    1.750000E-03	    8.040000E+02	
    3.970020E-03	    1.343980E-02	    1.680622E-03	   -1.000000E+00	    1.750000E-03	    1.750000E-03	    8.040000E+02	
    4.585821E-03	    1.333297E-02	    1.661775E-03	   -1.000000E+00	    1.750000E-03	    1.750000E-03	    8.040000E+02	
    5.234758E-03	    1.320311E-02	    1.638932E-03	   -1.000000E+00	    1.750000E-03	    1.750000E-03	    8.040000E+02	
    5.916234E-03	    1.304737E-02	    1.611629E-03	   -1.000000E+00	    1.750000E-03	    1.750000E-03	    8.040000E+02	
    6.629065E-03	    1.286281E-02	    1.579410E-03	   -1.000000E+00	    1.750000E-03	    1.750000E-03	    8.040000E+02	
    7.371390E-03	    1.264653E-02	    1.541849E-03	   -1.000000E+00	    1.750000E-03	    1.750000E-03	    8.040000E+02	
    8.140591E-03	    1.239578E-02	    1.498572E-03	   -1.000000E+00	    1.750000E-03	    1.750000E-03	    8.040000E+02	
    8.933237E-03	    1.210812E-02	    1.449289E-03	   -1.000000E+00	    1.750000E-03	    1.750000E-03	    8.040000E+02	
    9.745050E-03	    1.178155E-02	    1.393831E-03	   -1.000000E+00	    1.750000E-03	    1.750000E-03	    8.040000E+02	
    1.057091E-02	    1.141473E-02	    1.332178E-03	   -1.000000E+00	    1.750000E-03	    1.750000E-03	    8.040000E+02	
    1.140491E-02	    1.100712E-02	    1.264497E-03	   -1.000000E+00	    1.750000E-03	    1.750000E-03	    8.040000E+02	
    1.224046E-02	    1.055921E-02	    1.191173E-03	   -1.000000E+00	    1.750000E-03	    1.750000E-03	    8.040000E+02	
    1.307046E-02	    1.007263E-02	    1.112821E-03	   -1.000000E+00	    1.750000E-03	    1.750000E-03	    8.040000E+02	
    1.388752E-02	    9.550251E-03	    1.030299E-03	   -1.000000E+00	    1.750000E-03	    1.750000E-03	    8.040000E+02	
    1.468422E-02	    8.996264E-03	    9.446921E-04	   -1.000000E+00	    1.750000E-03	    1.750000E-03	    8.040000E+02	
    1.545339E-02	    8.416091E-03	    8.572810E-04	   -1.000000E+00	    1.750000E-03	    1.750000E-03	    8.040000E+02	
    1.618842E-02	    7.816275E-03	    7.694891E-04	   -1.000000E+00	    1.750000E-03	    1.750000E-03	    8.040000E+02	
    1.688356E-02	    7.204250E-03	    6.828125E-04	   -1.000000E+00	    1.750000E-03	    1.750000E-03	    8.040000E+02	
    1.753410E-02	    6.588040E-03	    5.987372E-04	   -1.000000E+00	    1.750000E-03	    1.750000E-03	    8.040000E+02	
    1.813655E-02	    5.975914E-03	    5.186519E-04	   -1.000000E+00	    1.750000E-03	    1.750000E-03	    8.040000E+02	
    1.868872E-02	    5.376002E-03	    4.437656E-04	   -1.000000E+00	    1.750000E-03	    1.750000E-03	    8.040000E+02	
    1.918972E-02	    4.795927E-03	    3.750395E-04	   -1.000000E+00	    1.750000E-03	    1.750000E-03	    8.040000E+02	
    1.963985E-02	    4.242484E-03	    3.131407E-04	   -1.000000E+00	    1.750000E-03	    1.750000E-03	    8.040000E+02	
    2.004049E-02	    3.721373E-03	    2.584223E-04	   -1.000000E+00	    1.750000E-03	    1.750000E-03	    8.040000E+02	
    2.039387E-02	    3.237026E-03	    2.109308E-04	   -1.000000E+00	    1.750000E-03	    1.750000E-03	    8.040000E+02	
    2.070291E-02	    2.792523E-03	    1.704389E-04	   -1.000000E+00	    1.750000E-03	    1.750000E-03	    8.040000E+02	
    2.097097E-02	    2.389596E-03	    1.364957E-04	   -1.000000E+00	    1.750000E-03	    1.750000E-03	    8.040000E+02	
    2.120168E-02	    2.028709E-03	    1.084892E-04	   -1.000000E+00	    1.750000E-03	    1.750000E-03	    8.040000E+02	
    2.139879E-02	    1.709200E-03	    8.571079E-05	   -1.000000E+00	    1.750000E-03	    1.750000E-03	    8.040000E+02	
    2.156600E-02	    1.429464E-03	    6.741516E-05	   -1.000000E+00	    1.750000E-03	    1.750000E-03	    8.040000E+02	
    2.170688E-02	    1.187158E-03	    5.287047E-05	   -1.000000E+00	    1.750000E-03	    1.750000E-03	    8.040000E+02	
    2.182480E-02	    9.794098E-04	    4.139562E-05	   -1.000000E+00	    1.750000E-03	    1.750000E-03	    8.040000E+02	
    2.192288E-02	    8.030141E-04	    3.238383E-05	   -1.000000E+00	    1.750000E-03	    1.750000E-03	    8.040000E+02	
    2.200396E-02	    6.546109E-04	    2.531397E-05	   -1.000000E+00	    1.750000E-03	    1.750000E-03	    8.040000E+02	
    2.207060E-02	    5.308334E-04	    1.975192E-05	   -1.000000E+00	    1.750000E-03	    1.750000E-03	    8.040000E+02	
    2.212506E-02	    4.284262E-04	    1.534483E-05	   -1.000000E+00	    1.750000E-03	    1.750000E-03	    8.040000E+02	
    2.216932E-02	    3.443322E-04	    1.181117E-05	   -1.000000E+00	    1.750000E-03	    1.750000E-03	    8.040000E+02	
    2.220512E-02	    2.757498E-04	    8.928798E-06	   -1.000000E+00	    1.750000E-03	    1.750000E-03	    8.040000E+02	
    2.223394E-02	    2.201664E-04	    6.522703E-06	   -1.000000E+00	    1.750000E-03	    1.750000E-03	    8.040000E+02	
    2.225704E-02	    1.753702E-04	    4.453258E-06	   -1.000000E+00	    1.750000E-03	    1.750000E-03	    8.040000E+02	
    2.227547E-02	    1.394458E-04	    2.604998E-06	   -1.000000E+00	    1.750000E-03	    1.750000E-03	    8.040000E+02	
    2.229015E-02	    1.107594E-04	    8.736832E-07	   -1.000000E+00	    1.750000E-03	    1.750000E-03	    8.040000E+02	
    2.229630E-02	    9.869115E-05	    0.000000E+00	   -1.000000E+00	    1.750000E-03	    1.750000E-03	    8.040000E+02	
   -2.229583E-02	    9.844946E-05	    0.000000E+00	   -1.000000E+00	    1.750000E-03	    1.750000E-03	    8.040000E+02	
   -2.228962E-02	    1.104879E-04	    2.750139E-06	   -1.000000E+00	    1.750000E-03	    1.750000E-03	    8.040000E+02	
   -2.227481E-02	    1.391031E-04	    8.202086E-06	   -1.000000E+00	    1.750000E-03	    1.750000E-03	    8.040000E+02	
   -2.225620E-02	    1.749378E-04	    1.401912E-05	   -1.000000E+00	    1.750000E-03	    1.750000E-03	    8.040000E+02	
   -2.223289E-02	    2.196215E-04	    2.052966E-05	   -1.000000E+00	    1.750000E-03	    1.750000E-03	    8.040000E+02	
   -2.220381E-02	    2.750640E-04	    2.809729E-05	   -1.000000E+00	    1.750000E-03	    1.750000E-03	    8.040000E+02	
   -2.216769E-02	    3.434708E-04	    3.716095E-05	   -1.000000E+00	    1.750000E-03	    1.750000E-03	    8.040000E+02	
   -2.212303E-02	    4.273469E-04	    4.827017E-05	   -1.000000E+00	    1.750000E-03	    1.750000E-03	    8.040000E+02	
   -2.206809E-02	    5.294844E-04	    6.212199E-05	   -1.000000E+00	    1.750000E-03	    1.750000E-03	    8.040000E+02	
   -2.200088E-02	    6.529300E-04	    7.959936E-05	   -1.000000E+00	    1.750000E-03	    1.750000E-03	    8.040000E+02	
   -2.191911E-02	    8.009268E-04	    1.018085E-04	   -1.000000E+00	    1.750000E-03	    1.750000E-03	    8.040000E+02	
   -2.182022E-02	    9.768271E-04	    1.301099E-04	   -1.000000E+00	    1.750000E-03	    1.750000E-03	    8.040000E+02	
   -2.170136E-02	    1.183975E-03	    1.661360E-04	   -1.000000E+00	    1.750000E-03	    1.750000E-03	    8.040000E+02	
   -2.155940E-02	    1.425557E-03	    2.117865E-04	   -1.000000E+00	    1.750000E-03	    1.750000E-03	    8.040000E+02	
   -2.139096E-02	    1.704426E-03	    2.691928E-04	   -1.000000E+00	    1.750000E-03	    1.750000E-03	    8.040000E+02	
   -2.119248E-02	    2.022905E-03	    3.406430E-04	   -1.000000E+00	    1.750000E-03	    1.750000E-03	    8.040000E+02	
   -2.096024E-02	    2.382576E-03	    4.284655E-04	   -1.000000E+00	    1.750000E-03	    1.750000E-03	    8.040000E+02	
   -2.069053E-02	    2.784079E-03	    5.348712E-04	   -1.000000E+00	    1.750000E-03	    1.750000E-03	    8.040000E+02	
   -2.037974E-02	    3.226930E-03	    6.617656E-04	   -1.000000E+00	    1.750000E-03	    1.750000E-03	    8.040000E+02	
   -2.002453E-02	    3.709382E-03	    8.105467E-04	   -1.000000E+00	    1.750000E-03	    1.750000E-03	    8.040000E+02	
   -1.962202E-02	    4.228343E-03	    9.819114E-04	   -1.000000E+00	    1.750000E-03	    1.750000E-03	    8.040000E+02	
   -1.917003E-02	    4.779375E-03	    1.175698E-03	   -1.000000E+00	    1.750000E-03	    1.750000E-03	    8.040000E+02	
   -1.866723E-02	    5.356783E-03	    1.390784E-03	   -1.000000E+00	    1.750000E-03	    1.750000E-03	    8.040000E+02	
   -1.811337E-02	    5.953787E-03	    1.625068E-03	   -1.000000E+00	    1.750000E-03	    1.750000E-03	    8.040000E+02	
   -1.750940E-02	    6.562787E-03	    1.875530E-03	   -1.000000E+00	    1.750000E-03	    1.750000E-03	    8.040000E+02	
   -1.685756E-02	    7.175689E-03	    2.138381E-03	   -1.000000E+00	    1.750000E-03	    1.750000E-03	    8.040000E+02	
   -1.616137E-02	    7.784270E-03	    2.409272E-03	   -1.000000E+00	    1.750000E-03	    1.750000E-03	    8.040000E+02	
   -1.542559E-02	    8.380555E-03	    2.683558E-03	   -1.000000E+00	    1.750000E-03	    1.750000E-03	    8.040000E+02	
   -1.465599E-02	    8.957167E-03	    2.956567E-03	   -1.000000E+00	    1.750000E-03	    1.750000E-03	    8.040000E+02	
   -1.385918E-02	    9.507622E-03	    3.223859E-03	   -1.000000E+00	    1.750000E-03	    1.750000E-03	    8.040000E+02	
   -1.304233E-02	    1.002655E-02	    3.481446E-03	   -1.000000E+00	    1.750000E-03	    1.750000E-03	    8.040000E+02	
   -1.221285E-02	    1.050981E-02	    3.725951E-03	   -1.000000E+00	    1.750000E-03	    1.750000E-03	    8.040000E+02	
   -1.137809E-02	    1.095458E-02	    3.954712E-03	   -1.000000E+00	    1.750000E-03	    1.750000E-03	    8.040000E+02	
   -1.054513E-02	    1.135925E-02	    4.165816E-03	   -1.000000E+00	    1.750000E-03	    1.750000E-03	    8.040000E+02	
   -9.720527E-03	    1.172337E-02	    4.358081E-03	   -1.000000E+00	    1.750000E-03	    1.750000E-03	    8.040000E+02	
   -8.910136E-03	    1.204748E-02	    4.530997E-03	   -1.000000E+00	    1.750000E-03	    1.750000E-03	    8.040000E+02	
   -8.119041E-03	    1.233295E-02	    4.684630E-03	   -1.000000E+00	    1.750000E-03	    1.750000E-03	    8.040000E+02	
   -7.351483E-03	    1.258175E-02	    4.819525E-03	   -1.000000E+00	    1.750000E-03	    1.750000E-03	    8.040000E+02	
   -6.610857E-03	    1.279634E-02	    4.936588E-03	   -1.000000E+00	    1.750000E-03	    1.750000E-03	    8.040000E+02	
   -5.899751E-03	    1.297943E-02	    5.036990E-03	   -1.000000E+00	    1.750000E-03	    1.750000E-03	    8.040000E+02	
   -5.220000E-03	    1.313393E-02	    5.122067E-03	   -1.000000E+00	    1.750000E-03	    1.750000E-03	    8.040000E+02	
   -4.572766E-03	    1.326273E-02	    5.193241E-03	   -1.000000E+00	    1.750000E-03	    1.750000E-03	    8.040000E+02	
   -3.958628E-03	    1.336870E-02	    5.251960E-03	   -1.000000E+00	    1.750000E-03	    1.750000E-03	    8.040000E+02	
   -3.377665E-03	    1.345457E-02	    5.299645E-03	   -1.000000E+00	    1.750000E-03	    1.750000E-03	    8.040000E+02	