Title="Fields"
Variables="X""Y""Velocity""Phi""Effective Viscosity""Dynamic Viscosity""Density""Eddy Viscosity""K""Omega""S""F1SST""distance""GEN"
Zone I=52 J=52 F=POINT
   -1.214864E-02	    6.022430E-05	    0.000000E+00	    0.000000E+00	    1.000000E-03	    1.000000E-03	    1.000000E+03	    0.000000E+00	    0.000000E+00	    3.039697E+08	    0.000000E+00	    1.000000E+00	    0.000000E+00	    0.000000E+00	
   -1.214840E-02	    7.587059E-05	    0.000000E+00	    0.000000E+00	    1.000000E-03	    1.000000E-03	    1.000000E+03	    0.000000E+00	    0.000000E+00	    3.039697E+08	    0.000000E+00	    1.000000E+00	    0.000000E+00	    0.000000E+00	
   -1.214760E-02	    1.201162E-04	    0.000000E+00	    0.000000E+00	    1.000000E-03	    1.000000E-03	    1.000000E+03	    0.000000E+00	    0.000000E+00	    1.212788E+08	    0.000000E+00	    1.000000E+00	    0.000000E+00	    0.000000E+00	
   -1.214604E-02	    1.887791E-04	    0.000000E+00	    0.000000E+00	    1.000000E-03	    1.000000E-03	    1.000000E+03	    0.000000E+00	    0.000000E+00	    4.910171E+07	    0.000000E+00	    1.000000E+00	    0.000000E+00	    0.000000E+00	
   -1.214292E-02	    2.931943E-04	    0.000000E+00	    0.000000E+00	    1.000000E-03	    1.000000E-03	    1.000000E+03	    0.000000E+00	    0.000000E+00	    2.035722E+07	    0.000000E+00	    1.000000E+00	    0.000000E+00	    0.000000E+00	
   -1.213664E-02	    4.481479E-04	    0.000000E+00	    0.000000E+00	    1.000000E-03	    1.000000E-03	    1.000000E+03	    0.000000E+00	    0.000000E+00	    8.714137E+06	    0.000000E+00	    1.000000E+00	    0.000000E+00	    0.000000E+00	
   -1.212408E-02	    6.717413E-04	    0.000000E+00	    0.000000E+00	    1.000000E-03	    1.000000E-03	    1.000000E+03	    0.000000E+00	    0.000000E+00	    3.878976E+06	    0.000000E+00	    1.000000E+00	    0.000000E+00	    0.000000E+00	
   -1.209956E-02	    9.844691E-04	    0.000000E+00	    0.000000E+00	    1.000000E-03	    1.000000E-03	    1.000000E+03	    0.000000E+00	    0.000000E+00	    1.806311E+06	    0.000000E+00	    1.000000E+00	    0.000000E+00	    0.000000E+00	
   -1.205344E-02	    1.407248E-03	    0.000000E+00	    0.000000E+00	    1.000000E-03	    1.000000E-03	    1.000000E+03	    0.000000E+00	    0.000000E+00	    8.842150E+05	    0.000000E+00	    1.000000E+00	    0.000000E+00	    0.000000E+00	
   -1.197068E-02	    1.958259E-03	    0.000000E+00	    0.000000E+00	    1.000000E-03	    1.000000E-03	    1.000000E+03	    0.000000E+00	    0.000000E+00	    4.567641E+05	    0.000000E+00	    1.000000E+00	    0.000000E+00	    0.000000E+00	
   -1.182998E-02	    2.648730E-03	    0.000000E+00	    0.000000E+00	    1.000000E-03	    1.000000E-03	    1.000000E+03	    0.000000E+00	    0.000000E+00	    2.497606E+05	    0.000000E+00	    1.000000E+00	    0.000000E+00	    0.000000E+00	
   -1.160451E-02	    3.478208E-03	    0.000000E+00	    0.000000E+00	    1.000000E-03	    1.000000E-03	    1.000000E+03	    0.000000E+00	    0.000000E+00	    1.449073E+05	    0.000000E+00	    1.000000E+00	    0.000000E+00	    0.000000E+00	
   -1.126508E-02	    4.430482E-03	    0.000000E+00	    0.000000E+00	    1.000000E-03	    1.000000E-03	    1.000000E+03	    0.000000E+00	    0.000000E+00	    8.935809E+04	    0.000000E+00	    1.000000E+00	    0.000000E+00	    0.000000E+00	
   -1.078595E-02	    5.471869E-03	    0.000000E+00	    0.000000E+00	    1.000000E-03	    1.000000E-03	    1.000000E+03	    0.000000E+00	    0.000000E+00	    5.861743E+04	    0.000000E+00	    1.000000E+00	    0.000000E+00	    0.000000E+00	
   -1.015216E-02	    6.553542E-03	    0.000000E+00	    0.000000E+00	    1.000000E-03	    1.000000E-03	    1.000000E+03	    0.000000E+00	    0.000000E+00	    4.089117E+04	    0.000000E+00	    1.000000E+00	    0.000000E+00	    0.000000E+00	
   -9.365676E-03	    7.618437E-03	    0.000000E+00	    0.000000E+00	    1.000000E-03	    1.000000E-03	    1.000000E+03	    0.000000E+00	    0.000000E+00	    3.027935E+04	    0.000000E+00	    1.000000E+00	    0.000000E+00	    0.000000E+00	
   -8.447592E-03	    8.611236E-03	    0.000000E+00	    0.000000E+00	    1.000000E-03	    1.000000E-03	    1.000000E+03	    0.000000E+00	    0.000000E+00	    2.371633E+04	    0.000000E+00	    1.000000E+00	    0.000000E+00	    0.000000E+00	
   -7.434908E-03	    9.488112E-03	    0.000000E+00	    0.000000E+00	    1.000000E-03	    1.000000E-03	    1.000000E+03	    0.000000E+00	    0.000000E+00	    1.954836E+04	    0.000000E+00	    1.000000E+00	    0.000000E+00	    0.000000E+00	
   -6.373132E-03	    1.022286E-02	    0.000000E+00	    0.000000E+00	    1.000000E-03	    1.000000E-03	    1.000000E+03	    0.000000E+00	    0.000000E+00	    1.684972E+04	    0.000000E+00	    1.000000E+00	    0.000000E+00	    0.000000E+00	
   -5.307702E-03	    1.080785E-02	    0.000000E+00	    0.000000E+00	    1.000000E-03	    1.000000E-03	    1.000000E+03	    0.000000E+00	    0.000000E+00	    1.508298E+04	    0.000000E+00	    1.000000E+00	    0.000000E+00	    0.000000E+00	
   -4.277189E-03	    1.125075E-02	    0.000000E+00	    0.000000E+00	    1.000000E-03	    1.000000E-03	    1.000000E+03	    0.000000E+00	    0.000000E+00	    1.392482E+04	    0.000000E+00	    1.000000E+00	    0.000000E+00	    0.000000E+00	
   -3.309761E-03	    1.156901E-02	    0.000000E+00	    0.000000E+00	    1.000000E-03	    1.000000E-03	    1.000000E+03	    0.000000E+00	    0.000000E+00	    1.317353E+04	    0.000000E+00	    1.000000E+00	    0.000000E+00	    0.000000E+00	
   -2.422724E-03	    1.178450E-02	    0.000000E+00	    0.000000E+00	    1.000000E-03	    1.000000E-03	    1.000000E+03	    0.000000E+00	    0.000000E+00	    1.269908E+04	    0.000000E+00	    1.000000E+00	    0.000000E+00	    0.000000E+00	
   -1.624046E-03	    1.191947E-02	    0.000000E+00	    0.000000E+00	    1.000000E-03	    1.000000E-03	    1.000000E+03	    0.000000E+00	    0.000000E+00	    1.241496E+04	    0.000000E+00	    1.000000E+00	    0.000000E+00	    0.000000E+00	
   -9.147101E-04	    1.199402E-02	    0.000000E+00	    0.000000E+00	    1.000000E-03	    1.000000E-03	    1.000000E+03	    0.000000E+00	    0.000000E+00	    1.226213E+04	    0.000000E+00	    1.000000E+00	    0.000000E+00	    0.000000E+00	
   -2.910617E-04	    1.202501E-02	    0.000000E+00	    0.000000E+00	    1.000000E-03	    1.000000E-03	    1.000000E+03	    0.000000E+00	    0.000000E+00	    1.219942E+04	    0.000000E+00	    1.000000E+00	    0.000000E+00	    0.000000E+00	
    2.910617E-04	    1.202501E-02	    0.000000E+00	    0.000000E+00	    1.000000E-03	    1.000000E-03	    1.000000E+03	    0.000000E+00	    0.000000E+00	    1.219942E+04	    0.000000E+00	    1.000000E+00	    0.000000E+00	    0.000000E+00	
    9.147101E-04	    1.199402E-02	    0.000000E+00	    0.000000E+00	    1.000000E-03	    1.000000E-03	    1.000000E+03	    0.000000E+00	    0.000000E+00	    1.226213E+04	    0.000000E+00	    1.000000E+00	    0.000000E+00	    0.000000E+00	
    1.624046E-03	    1.191947E-02	    0.000000E+00	    0.000000E+00	    1.000000E-03	    1.000000E-03	    1.000000E+03	    0.000000E+00	    0.000000E+00	    1.241496E+04	    0.000000E+00	    1.000000E+00	    0.000000E+00	    0.000000E+00	
    2.422724E-03	    1.178450E-02	    0.000000E+00	    0.000000E+00	    1.000000E-03	    1.000000E-03	    1.000000E+03	    0.000000E+00	    0.000000E+00	    1.269908E+04	    0.000000E+00	    1.000000E+00	    0.000000E+00	    0.000000E+00	
    3.309761E-03	    1.156901E-02	    0.000000E+00	    0.000000E+00	    1.000000E-03	    1.000000E-03	    1.000000E+03	    0.000000E+00	    0.000000E+00	    1.317353E+04	    0.000000E+00	    1.000000E+00	    0.000000E+00	    0.000000E+00	
    4.277189E-03	    1.125075E-02	    0.000000E+00	    0.000000E+00	    1.000000E-03	    1.000000E-03	    1.000000E+03	    0.000000E+00	    0.000000E+00	    1.392482E+04	    0.000000E+00	    1.000000E+00	    0.000000E+00	    0.000000E+00	
    5.307702E-03	    1.080785E-02	    0.000000E+00	    0.000000E+00	    1.000000E-03	    1.000000E-03	    1.000000E+03	    0.000000E+00	    0.000000E+00	    1.508298E+04	    0.000000E+00	    1.000000E+00	    0.000000E+00	    0.000000E+00	
    6.373132E-03	    1.022286E-02	    0.000000E+00	    0.000000E+00	    1.000000E-03	    1.000000E-03	    1.000000E+03	    0.000000E+00	    0.000000E+00	    1.684972E+04	    0.000000E+00	    1.000000E+00	    0.000000E+00	    0.000000E+00	
    7.434908E-03	    9.488112E-03	    0.000000E+00	    0.000000E+00	    1.000000E-03	    1.000000E-03	    1.000000E+03	    0.000000E+00	    0.000000E+00	    1.954836E+04	    0.000000E+00	    1.000000E+00	    0.000000E+00	    0.000000E+00	
    8.447592E-03	    8.611236E-03	    0.000000E+00	    0.000000E+00	    1.000000E-03	    1.000000E-03	    1.000000E+03	    0.000000E+00	    0.000000E+00	    2.371633E+04	    0.000000E+00	    1.000000E+00	    0.000000E+00	    0.000000E+00	
    9.365676E-03	    7.618437E-03	    0.000000E+00	    0.000000E+00	    1.000000E-03	    1.000000E-03	    1.000000E+03	    0.000000E+00	    0.000000E+00	    3.027935E+04	    0.000000E+00	    1.000000E+00	    0.000000E+00	    0.000000E+00	
    1.015216E-02	    6.553542E-03	    0.000000E+00	    0.000000E+00	    1.000000E-03	    1.000000E-03	    1.000000E+03	    0.000000E+00	    0.000000E+00	    4.089117E+04	    0.000000E+00	    1.000000E+00	    0.000000E+00	    0.000000E+00	
    1.078595E-02	    5.471869E-03	    0.000000E+00	    0.000000E+00	    1.000000E-03	    1.000000E-03	    1.000000E+03	    0.000000E+00	    0.000000E+00	    5.861743E+04	    0.000000E+00	    1.000000E+00	    0.000000E+00	    0.000000E+00	
    1.126508E-02	    4.430482E-03	    0.000000E+00	    0.000000E+00	    1.000000E-03	    1.000000E-03	    1.000000E+03	    0.000000E+00	    0.000000E+00	    8.935809E+04	    0.000000E+00	    1.000000E+00	    0.000000E+00	    0.000000E+00	
    1.160451E-02	    3.478208E-03	    0.000000E+00	    0.000000E+00	    1.000000E-03	    1.000000E-03	    1.000000E+03	    0.000000E+00	    0.000000E+00	    1.449073E+05	    0.000000E+00	    1.000000E+00	    0.000000E+00	    0.000000E+00	
    1.182998E-02	    2.648730E-03	    0.000000E+00	    0.000000E+00	    1.000000E-03	    1.000000E-03	    1.000000E+03	    0.000000E+00	    0.000000E+00	    2.497606E+05	    0.000000E+00	    1.000000E+00	    0.000000E+00	    0.000000E+00	
    1.197068E-02	    1.958259E-03	    0.000000E+00	    0.000000E+00	    1.000000E-03	    1.000000E-03	    1.000000E+03	    0.000000E+00	    0.000000E+00	    4.567641E+05	    0.000000E+00	    1.000000E+00	    0.000000E+00	    0.000000E+00	
    1.205344E-02	    1.407248E-03	    0.000000E+00	    0.000000E+00	    1.000000E-03	    1.000000E-03	    1.000000E+03	    0.000000E+00	    0.000000E+00	    8.842150E+05	    0.000000E+00	    1.000000E+00	    0.000000E+00	    0.000000E+00	
    1.209956E-02	    9.844691E-04	    0.000000E+00	    0.000000E+00	    1.000000E-03	    1.000000E-03	    1.000000E+03	    0.000000E+00	    0.000000E+00	    1.806311E+06	    0.000000E+00	    1.000000E+00	    0.000000E+00	    0.000000E+00	
    1.212408E-02	    6.717413E-04	    0.000000E+00	    0.000000E+00	    1.000000E-03	    1.000000E-03	    1.000000E+03	    0.000000E+00	    0.000000E+00	    3.878976E+06	    0.000000E+00	    1.000000E+00	    0.000000E+00	    0.000000E+00	
    1.213664E-02	    4.481479E-04	    0.000000E+00	    0.000000E+00	    1.000000E-03	    1.000000E-03	    1.000000E+03	    0.000000E+00	    0.000000E+00	    8.714137E+06	    0.000000E+00	    1.000000E+00	    0.000000E+00	    0.000000E+00	
    1.214292E-02	    2.931943E-04	    0.000000E+00	    0.000000E+00	    1.000000E-03	    1.000000E-03	    1.000000E+03	    0.000000E+00	    0.000000E+00	    2.035722E+07	    0.000000E+00	    1.000000E+00	    0.000000E+00	    0.000000E+00	
    1.214604E-02	    1.887791E-04	    0.000000E+00	    0.000000E+00	    1.000000E-03	    1.000000E-03	    1.000000E+03	    0.000000E+00	    0.000000E+00	    4.910171E+07	    0.000000E+00	    1.000000E+00	    0.000000E+00	    0.000000E+00	
    1.214760E-02	    1.201162E-04	    0.000000E+00	    0.000000E+00	    1.000000E-03	    1.000000E-03	    1.000000E+03	    0.000000E+00	    0.000000E+00	    1.212788E+08	    0.000000E+00	    1.000000E+00	    0.000000E+00	    0.000000E+00	
    1.214840E-02	    7.587059E-05	    0.000000E+00	    0.000000E+00	    1.000000E-03	    1.000000E-03	    1.000000E+03	    0.000000E+00	    0.000000E+00	    3.039697E+08	    0.000000E+00	    1.000000E+00	    0.000000E+00	    0.000000E+00	
    1.214864E-02	    6.022430E-05	    0.000000E+00	    0.000000E+00	    1.000000E-03	    1.000000E-03	    1.000000E+03	    0.000000E+00	    0.000000E+00	    0.000000E+00	    0.000000E+00	    1.000000E+00	    0.000000E+00	    0.000000E+00	
   -1.214823E-02	    6.021683E-05	    0.000000E+00	    0.000000E+00	    1.000000E-03	    1.000000E-03	    1.000000E+03	    0.000000E+00	    0.000000E+00	    0.000000E+00	    0.000000E+00	    1.000000E+00	    0.000000E+00	    0.000000E+00	
   -1.214788E-02	    7.586052E-05	    1.004276E-04	   -1.000000E+00	    1.000000E-03	    1.000000E-03	    1.000000E+03	    4.941450E-15	    1.502051E-09	    3.039697E+08	    3.833966E+04	    1.000000E+00	    5.130147E-07	    1.975662E+01	
   -1.214679E-02	    1.200973E-04	    3.211577E-04	   -1.000000E+00	    1.000000E-03	    1.000000E-03	    1.000000E+03	    2.793160E-14	    3.387512E-09	    1.212788E+08	    1.563255E+05	    1.000000E+00	    8.121804E-07	    3.785564E+01	
   -1.214476E-02	    1.887422E-04	    6.069517E-04	   -1.000000E+00	    1.000000E-03	    1.000000E-03	    1.000000E+03	    2.476402E-13	    1.215955E-08	    4.910171E+07	    2.260253E+05	    1.000000E+00	    1.276429E-06	    5.487776E+01	
   -1.214094E-02	    2.931200E-04	    1.009254E-03	   -1.000000E+00	    1.000000E-03	    1.000000E-03	    1.000000E+03	    1.669448E-12	    3.398532E-08	    2.035722E+07	    2.590617E+05	    1.000000E+00	    1.982375E-06	    6.324866E+01	
   -1.213361E-02	    4.479957E-04	    1.586167E-03	   -1.000000E+00	    1.000000E-03	    1.000000E-03	    1.000000E+03	    9.807279E-12	    8.546197E-08	    8.714137E+06	    2.738461E+05	    1.000000E+00	    3.029932E-06	    6.747558E+01	
   -1.211955E-02	    6.714295E-04	    2.397638E-03	   -1.000000E+00	    1.000000E-03	    1.000000E-03	    1.000000E+03	    5.170730E-11	    2.005714E-07	    3.878976E+06	    2.784323E+05	    1.000000E+00	    4.541366E-06	    6.955396E+01	
   -1.209293E-02	    9.838410E-04	    3.509649E-03	   -1.000000E+00	    1.000000E-03	    1.000000E-03	    1.000000E+03	    2.472271E-10	    4.465691E-07	    1.806311E+06	    2.776782E+05	    1.000000E+00	    6.655010E-06	    7.074364E+01	
   -1.204401E-02	    1.406019E-03	    4.988780E-03	   -1.000000E+00	    1.000000E-03	    1.000000E-03	    1.000000E+03	    1.075097E-09	    9.506171E-07	    8.842150E+05	    2.744565E+05	    1.000000E+00	    9.511874E-06	    7.181939E+01	
   -1.195765E-02	    1.955950E-03	    6.888613E-03	   -1.000000E+00	    1.000001E-03	    1.000000E-03	    1.000000E+03	    4.241845E-09	    1.937522E-06	    4.567641E+05	    2.700772E+05	    1.000000E+00	    1.323424E-05	    7.313641E+01	
   -1.181256E-02	    2.644593E-03	    9.243114E-03	   -1.000000E+00	    1.000003E-03	    1.000000E-03	    1.000000E+03	    1.513819E-08	    3.780924E-06	    2.497606E+05	    2.655707E+05	    1.000000E+00	    1.789713E-05	    7.495958E+01	
   -1.158209E-02	    3.471175E-03	    1.203335E-02	   -1.000000E+00	    1.000011E-03	    1.000000E-03	    1.000000E+03	    4.843579E-08	    7.018697E-06	    1.449073E+05	    2.607419E+05	    1.000000E+00	    2.349639E-05	    7.714167E+01	
   -1.123737E-02	    4.419185E-03	    1.519147E-02	   -1.000000E+00	    1.000030E-03	    1.000000E-03	    1.000000E+03	    1.376448E-07	    1.229967E-05	    8.935809E+04	    2.557160E+05	    1.000000E+00	    2.992139E-05	    7.949869E+01	
   -1.075321E-02	    5.454763E-03	    1.865652E-02	   -1.000000E+00	    1.000077E-03	    1.000000E-03	    1.000000E+03	    3.495448E-07	    2.048942E-05	    5.861743E+04	    2.522068E+05	    1.000000E+00	    3.694375E-05	    8.265903E+01	
   -1.011527E-02	    6.529136E-03	    2.218825E-02	   -1.000000E+00	    1.000171E-03	    1.000000E-03	    1.000000E+03	    7.757405E-07	    3.172094E-05	    4.089117E+04	    2.476381E+05	    1.000000E+00	    4.423348E-05	    8.532387E+01	
   -9.326135E-03	    7.585587E-03	    2.566454E-02	   -1.000000E+00	    1.000335E-03	    1.000000E-03	    1.000000E+03	    1.524595E-06	    4.616374E-05	    3.027935E+04	    2.435094E+05	    1.000000E+00	    5.140587E-05	    8.815264E+01	
   -8.407302E-03	    8.569391E-03	    2.894082E-02	   -1.000000E+00	    1.000586E-03	    1.000000E-03	    1.000000E+03	    2.663461E-06	    6.316752E-05	    2.371633E+04	    2.400457E+05	    1.000000E+00	    5.808887E-05	    9.106442E+01	
   -7.395856E-03	    9.437422E-03	    3.186320E-02	   -1.000000E+00	    1.000915E-03	    1.000000E-03	    1.000000E+03	    4.160281E-06	    8.132668E-05	    1.954836E+04	    2.368720E+05	    1.000000E+00	    6.398848E-05	    9.375168E+01	
   -6.337080E-03	    1.016411E-02	    3.429048E-02	   -1.000000E+00	    1.001286E-03	    1.000000E-03	    1.000000E+03	    5.844915E-06	    9.848521E-05	    1.684972E+04	    2.334517E+05	    1.000000E+00	    6.892962E-05	    9.568063E+01	
   -5.275969E-03	    1.074227E-02	    3.616486E-02	   -1.000000E+00	    1.001647E-03	    1.000000E-03	    1.000000E+03	    7.488133E-06	    1.129434E-04	    1.508298E+04	    2.297800E+05	    1.000000E+00	    7.286231E-05	    9.671372E+01	
   -4.250575E-03	    1.117974E-02	    3.759617E-02	   -1.000000E+00	    1.001975E-03	    1.000000E-03	    1.000000E+03	    8.975834E-06	    1.249868E-04	    1.392482E+04	    2.270375E+05	    1.000000E+00	    7.583887E-05	    9.762676E+01	
   -3.288589E-03	    1.149396E-02	    3.862986E-02	   -1.000000E+00	    1.002242E-03	    1.000000E-03	    1.000000E+03	    1.019122E-05	    1.342544E-04	    1.317353E+04	    2.250568E+05	    1.000000E+00	    7.797729E-05	    9.833948E+01	
   -2.406939E-03	    1.170666E-02	    3.933198E-02	   -1.000000E+00	    1.002440E-03	    1.000000E-03	    1.000000E+03	    1.108991E-05	    1.408316E-04	    1.269908E+04	    2.237056E+05	    1.000000E+00	    7.942503E-05	    9.884571E+01	
   -1.613344E-03	    1.183986E-02	    3.977241E-02	   -1.000000E+00	    1.002571E-03	    1.000000E-03	    1.000000E+03	    1.168563E-05	    1.450765E-04	    1.241496E+04	    2.228525E+05	    1.000000E+00	    8.033169E-05	    9.917072E+01	
   -9.086451E-04	    1.191341E-02	    4.001550E-02	   -1.000000E+00	    1.002646E-03	    1.000000E-03	    1.000000E+03	    1.202565E-05	    1.474601E-04	    1.226213E+04	    2.223749E+05	    1.000000E+00	    8.083244E-05	    9.935068E+01	
   -2.891269E-04	    1.194400E-02	    4.011571E-02	   -1.000000E+00	    1.002677E-03	    1.000000E-03	    1.000000E+03	    1.216880E-05	    1.484524E-04	    1.219942E+04	    2.221667E+05	    1.000000E+00	    8.104063E-05	    9.942125E+01	
    2.891269E-04	    1.194400E-02	    4.011571E-02	   -1.000000E+00	    1.002677E-03	    1.000000E-03	    1.000000E+03	    1.216880E-05	    1.484524E-04	    1.219942E+04	    2.221667E+05	    1.000000E+00	    8.104063E-05	    9.942125E+01	
    9.086451E-04	    1.191341E-02	    4.001550E-02	   -1.000000E+00	    1.002646E-03	    1.000000E-03	    1.000000E+03	    1.202565E-05	    1.474601E-04	    1.226213E+04	    2.223749E+05	    1.000000E+00	    8.083244E-05	    9.935068E+01	
    1.613344E-03	    1.183986E-02	    3.977241E-02	   -1.000000E+00	    1.002571E-03	    1.000000E-03	    1.000000E+03	    1.168563E-05	    1.450765E-04	    1.241496E+04	    2.228525E+05	    1.000000E+00	    8.033169E-05	    9.917072E+01	
    2.406939E-03	    1.170666E-02	    3.933198E-02	   -1.000000E+00	    1.002440E-03	    1.000000E-03	    1.000000E+03	    1.108991E-05	    1.408316E-04	    1.269908E+04	    2.237056E+05	    1.000000E+00	    7.942503E-05	    9.884571E+01	
    3.288589E-03	    1.149396E-02	    3.862986E-02	   -1.000000E+00	    1.002242E-03	    1.000000E-03	    1.000000E+03	    1.019122E-05	    1.342544E-04	    1.317353E+04	    2.250568E+05	    1.000000E+00	    7.797729E-05	    9.833948E+01	
    4.250575E-03	    1.117974E-02	    3.759617E-02	   -1.000000E+00	    1.001975E-03	    1.000000E-03	    1.000000E+03	    8.975834E-06	    1.249868E-04	    1.392482E+04	    2.270375E+05	    1.000000E+00	    7.583887E-05	    9.762676E+01	
    5.275969E-03	    1.074227E-02	    3.616486E-02	   -1.000000E+00	    1.001647E-03	    1.000000E-03	    1.000000E+03	    7.488133E-06	    1.129434E-04	    1.508298E+04	    2.297800E+05	    1.000000E+00	    7.286231E-05	    9.671372E+01	
    6.337080E-03	    1.016411E-02	    3.429048E-02	   -1.000000E+00	    1.001286E-03	    1.000000E-03	    1.000000E+03	    5.844915E-06	    9.848521E-05	    1.684972E+04	    2.334517E+05	    1.000000E+00	    6.892962E-05	    9.568063E+01	
    7.395856E-03	    9.437422E-03	    3.186320E-02	   -1.000000E+00	    1.000915E-03	    1.000000E-03	    1.000000E+03	    4.160281E-06	    8.132668E-05	    1.954836E+04	    2.368720E+05	    1.000000E+00	    6.398848E-05	    9.375168E+01	
    8.407302E-03	    8.569391E-03	    2.894082E-02	   -1.000000E+00	    1.000586E-03	    1.000000E-03	    1.000000E+03	    2.663461E-06	    6.316752E-05	    2.371633E+04	    2.400457E+05	    1.000000E+00	    5.808887E-05	    9.106442E+01	
    9.326135E-03	    7.585587E-03	    2.566454E-02	   -1.000000E+00	    1.000335E-03	    1.000000E-03	    1.000000E+03	    1.524595E-06	    4.616374E-05	    3.027935E+04	    2.435094E+05	    1.000000E+00	    5.140587E-05	    8.815264E+01	
    1.011527E-02	    6.529136E-03	    2.218825E-02	   -1.000000E+00	    1.000171E-03	    1.000000E-03	    1.000000E+03	    7.757405E-07	    3.172094E-05	    4.089117E+04	    2.476381E+05	    1.000000E+00	    4.423348E-05	    8.532387E+01	
    1.075321E-02	    5.454763E-03	    1.865652E-02	   -1.000000E+00	    1.000077E-03	    1.000000E-03	    1.000000E+03	    3.495448E-07	    2.048942E-05	    5.861743E+04	    2.522068E+05	    1.000000E+00	    3.694375E-05	    8.265903E+01	
    1.123737E-02	    4.419185E-03	    1.519147E-02	   -1.000000E+00	    1.000030E-03	    1.000000E-03	    1.000000E+03	    1.376448E-07	    1.229967E-05	    8.935809E+04	    2.557160E+05	    1.000000E+00	    2.992139E-05	    7.949869E+01	
    1.158209E-02	    3.471175E-03	    1.203335E-02	   -1.000000E+00	    1.000011E-03	    1.000000E-03	    1.000000E+03	    4.843579E-08	    7.018697E-06	    1.449073E+05	    2.607418E+05	    1.000000E+00	    2.349639E-05	    7.714167E+01	
    1.181256E-02	    2.644593E-03	    9.243114E-03	   -1.000000E+00	    1.000003E-03	    1.000000E-03	    1.000000E+03	    1.513819E-08	    3.780924E-06	    2.497606E+05	    2.655707E+05	    1.000000E+00	    1.789713E-05	    7.495958E+01	
    1.195765E-02	    1.955950E-03	    6.888613E-03	   -1.000000E+00	    1.000001E-03	    1.000000E-03	    1.000000E+03	    4.241845E-09	    1.937522E-06	    4.567641E+05	    2.700772E+05	    1.000000E+00	    1.323424E-05	    7.313641E+01	
    1.204401E-02	    1.406019E-03	    4.988780E-03	   -1.000000E+00	    1.000000E-03	    1.000000E-03	    1.000000E+03	    1.075097E-09	    9.506171E-07	    8.842150E+05	    2.744565E+05	    1.000000E+00	    9.511874E-06	    7.181939E+01	
    1.209293E-02	    9.838410E-04	    3.509649E-03	   -1.000000E+00	    1.000000E-03	    1.000000E-03	    1.000000E+03	    2.472271E-10	    4.465691E-07	    1.806311E+06	    2.776782E+05	    1.000000E+00	    6.655010E-06	    7.074364E+01	
    1.211955E-02	    6.714295E-04	    2.397638E-03	   -1.000000E+00	    1.000000E-03	    1.000000E-03	    1.000000E+03	    5.170730E-11	    2.005713E-07	    3.878976E+06	    2.784323E+05	    1.000000E+00	    4.541366E-06	    6.955396E+01	
    1.213361E-02	    4.479957E-04	    1.586167E-03	   -1.000000E+00	    1.000000E-03	    1.000000E-03	    1.000000E+03	    9.807279E-12	    8.546197E-08	    8.714137E+06	    2.738461E+05	    1.000000E+00	    3.029932E-06	    6.747558E+01	
    1.214094E-02	    2.931200E-04	    1.009254E-03	   -1.000000E+00	    1.000000E-03	    1.000000E-03	    1.000000E+03	    1.669448E-12	    3.398532E-08	    2.035722E+07	    2.590617E+05	    1.000000E+00	    1.982375E-06	    6.324866E+01	
    1.214476E-02	    1.887422E-04	    6.069517E-04	   -1.000000E+00	    1.000000E-03	    1.000000E-03	    1.000000E+03	    2.476402E-13	    1.215955E-08	    4.910171E+07	    2.260253E+05	    1.000000E+00	    1.276429E-06	    5.487777E+01	
    1.214679E-02	    1.200973E-04	    3.211577E-04	   -1.000000E+00	    1.000000E-03	    1.000000E-03	    1.000000E+03	    2.793160E-14	    3.387512E-09	    1.212788E+08	    1.563255E+05	    1.000000E+00	    8.121804E-07	    3.785564E+01	
    1.214788E-02	    7.586052E-05	    1.004276E-04	   -1.000000E+00	    1.000000E-03	    1.000000E-03	    1.000000E+03	    4.941450E-15	    1.502051E-09	    3.039697E+08	    3.833967E+04	    1.000000E+00	    5.130147E-07	    1.975662E+01	
    1.214823E-02	    6.021683E-05	    0.000000E+00	    0.000000E+00	    1.000000E-03	    1.000000E-03	    1.000000E+03	    0.000000E+00	    0.000000E+00	    3.267914E+05	    0.000000E+00	    1.000000E+00	    0.000000E+00	    0.000000E+00	
   -1.214729E-02	    6.018900E-05	    0.000000E+00	    0.000000E+00	    1.000000E-03	    1.000000E-03	    1.000000E+03	    0.000000E+00	    0.000000E+00	    3.267914E+05	    0.000000E+00	    1.000000E+00	    0.000000E+00	    0.000000E+00	
   -1.214670E-02	    7.582392E-05	    3.327321E-04	   -1.000000E+00	    1.000000E-03	    1.000000E-03	    1.000000E+03	    8.412134E-11	    2.749013E-08	    3.267914E+05	    3.865330E+04	    1.000000E+00	    1.700203E-06	    3.010514E-01	
   -1.214491E-02	    1.200325E-04	    1.064111E-03	   -1.000000E+00	    1.000000E-03	    1.000000E-03	    1.000000E+03	    4.024607E-14	    6.918251E-10	    1.718988E+07	    1.563859E+05	    4.094645E-01	    2.691603E-06	    6.293916E-09	
   -1.214181E-02	    1.886237E-04	    2.010902E-03	   -1.000000E+00	    1.000000E-03	    1.000000E-03	    1.000000E+03	    4.937439E-13	    3.527606E-09	    7.144606E+06	    2.259553E+05	    1.000000E+00	    4.229957E-06	    1.115641E-07	
   -1.213636E-02	    2.928967E-04	    3.343312E-03	   -1.000000E+00	    1.000000E-03	    1.000000E-03	    1.000000E+03	    5.428514E-12	    1.608228E-08	    2.962557E+06	    2.588916E+05	    1.000000E+00	    6.568948E-06	    1.405397E-06	
   -1.212662E-02	    4.475651E-04	    5.253294E-03	   -1.000000E+00	    1.000000E-03	    1.000000E-03	    1.000000E+03	    5.223473E-11	    6.625609E-08	    1.268430E+06	    2.735645E+05	    1.000000E+00	    1.003921E-05	    1.428957E-05	
   -1.210908E-02	    6.705914E-04	    7.938267E-03	   -1.000000E+00	    1.000000E-03	    1.000000E-03	    1.000000E+03	    4.336943E-10	    2.449504E-07	    5.647997E+05	    2.779995E+05	    1.000000E+00	    1.504495E-05	    1.205668E-04	
   -1.207763E-02	    9.822180E-04	    1.161461E-02	   -1.000000E+00	    1.000001E-03	    1.000000E-03	    1.000000E+03	    3.139404E-09	    8.260489E-07	    2.631229E+05	    2.770364E+05	    1.000000E+00	    2.204275E-05	    8.697292E-04	
   -1.202224E-02	    1.402938E-03	    1.649902E-02	   -1.000000E+00	    1.000004E-03	    1.000000E-03	    1.000000E+03	    1.980496E-08	    2.552406E-06	    1.288771E+05	    2.735220E+05	    1.000000E+00	    3.149672E-05	    5.417092E-03	
   -1.192760E-02	    1.950285E-03	    2.276290E-02	   -1.000000E+00	    1.000024E-03	    1.000000E-03	    1.000000E+03	    1.082126E-07	    7.209453E-06	    6.662303E+04	    2.686937E+05	    1.000000E+00	    4.380714E-05	    2.907605E-02	
   -1.177247E-02	    2.634602E-03	    3.050986E-02	   -1.000000E+00	    1.000112E-03	    1.000000E-03	    1.000000E+03	    5.107863E-07	    1.862251E-05	    3.645851E+04	    2.633355E+05	    1.000000E+00	    5.921575E-05	    1.345082E-01	
   -1.153055E-02	    3.454397E-03	    3.966435E-02	   -1.000000E+00	    1.000454E-03	    1.000000E-03	    1.000000E+03	    2.064419E-06	    4.369420E-05	    2.116537E+04	    2.564832E+05	    1.000000E+00	    7.770067E-05	    5.294888E-01	
   -1.117378E-02	    4.392487E-03	    4.998172E-02	   -1.000000E+00	    1.001557E-03	    1.000000E-03	    1.000000E+03	    7.075676E-06	    9.234560E-05	    1.305113E+04	    2.466536E+05	    1.000000E+00	    9.888753E-05	    1.745241E+00	
   -1.067819E-02	    5.414629E-03	    6.122464E-02	   -1.000000E+00	    1.004616E-03	    1.000000E-03	    1.000000E+03	    2.097962E-05	    1.794138E-04	    8.551812E+03	    2.337409E+05	    1.000000E+00	    1.220149E-04	    4.903796E+00	
   -1.003092E-02	    6.472204E-03	    7.253761E-02	   -1.000000E+00	    1.011440E-03	    1.000000E-03	    1.000000E+03	    5.200136E-05	    3.097671E-04	    5.956904E+03	    2.161691E+05	    1.000000E+00	    1.459906E-04	    1.124109E+01	
   -9.235913E-03	    7.509312E-03	    8.343539E-02	   -1.000000E+00	    1.024277E-03	    1.000000E-03	    1.000000E+03	    1.103484E-04	    4.865449E-04	    4.409171E+03	    1.978058E+05	    1.000000E+00	    1.695485E-04	    2.182754E+01	
   -8.315535E-03	    8.472593E-03	    9.338066E-02	   -1.000000E+00	    1.044241E-03	    1.000000E-03	    1.000000E+03	    2.010953E-04	    6.958905E-04	    3.460501E+03	    1.812295E+05	    1.000000E+00	    1.914705E-04	    3.644440E+01	
   -7.307050E-03	    9.320514E-03	    1.018920E-01	   -1.000000E+00	    1.070045E-03	    1.000000E-03	    1.000000E+03	    3.183883E-04	    9.124823E-04	    2.865942E+03	    1.673928E+05	    1.000000E+00	    2.108000E-04	    5.329591E+01	
   -6.255204E-03	    1.002892E-02	    1.086505E-01	   -1.000000E+00	    1.097746E-03	    1.000000E-03	    1.000000E+03	    4.443006E-04	    1.105060E-03	    2.487190E+03	    1.567634E+05	    1.000000E+00	    2.269729E-04	    6.965008E+01	
   -5.203978E-03	    1.059161E-02	    1.136486E-01	   -1.000000E+00	    1.123215E-03	    1.000000E-03	    1.000000E+03	    5.600662E-04	    1.256277E-03	    2.243087E+03	    1.490394E+05	    1.000000E+00	    2.398345E-04	    8.347190E+01	