Title="Fields"
Variables="X""Y""Velocity""Phi""Effective Viscosity""Dynamic Viscosity""Density""Eddy Viscosity""K""Omega""S""F1SST""distance""GEN"
Zone I=82 J=82 F=POINT
   -1.214864E-02	    6.022430E-05	    0.000000E+00	   -1.000000E+00	    1.000000E-03	    1.000000E-03	    1.000000E+03	    0.000000E+00	    0.000000E+00	    1.029829E+09	    0.000000E+00	    1.000000E+00	    0.000000E+00	    0.000000E+00	
   -1.214850E-02	    6.958711E-05	    0.000000E+00	   -1.000000E+00	    1.000000E-03	    1.000000E-03	    1.000000E+03	    0.000000E+00	    0.000000E+00	    1.029829E+09	    0.000000E+00	    1.000000E+00	    0.000000E+00	    0.000000E+00	
   -1.214811E-02	    9.284917E-05	    0.000000E+00	   -1.000000E+00	    1.000000E-03	    1.000000E-03	    1.000000E+03	    0.000000E+00	    0.000000E+00	    5.784556E+08	    0.000000E+00	    1.000000E+00	    0.000000E+00	    0.000000E+00	
   -1.214753E-02	    1.236630E-04	    0.000000E+00	   -1.000000E+00	    1.000000E-03	    1.000000E-03	    1.000000E+03	    0.000000E+00	    0.000000E+00	    3.261000E+08	    0.000000E+00	    1.000000E+00	    0.000000E+00	    0.000000E+00	
   -1.214664E-02	    1.642119E-04	    0.000000E+00	   -1.000000E+00	    1.000000E-03	    1.000000E-03	    1.000000E+03	    0.000000E+00	    0.000000E+00	    1.849385E+08	    0.000000E+00	    1.000000E+00	    0.000000E+00	    0.000000E+00	
   -1.214528E-02	    2.171613E-04	    0.000000E+00	   -1.000000E+00	    1.000000E-03	    1.000000E-03	    1.000000E+03	    0.000000E+00	    0.000000E+00	    1.057497E+08	    0.000000E+00	    1.000000E+00	    0.000000E+00	    0.000000E+00	
   -1.214317E-02	    2.856999E-04	    0.000000E+00	   -1.000000E+00	    1.000000E-03	    1.000000E-03	    1.000000E+03	    0.000000E+00	    0.000000E+00	    6.109890E+07	    0.000000E+00	    1.000000E+00	    0.000000E+00	    0.000000E+00	
   -1.213991E-02	    3.735571E-04	    0.000000E+00	   -1.000000E+00	    1.000000E-03	    1.000000E-03	    1.000000E+03	    0.000000E+00	    0.000000E+00	    3.573981E+07	    0.000000E+00	    1.000000E+00	    0.000000E+00	    0.000000E+00	
   -1.213485E-02	    4.849849E-04	    0.000000E+00	   -1.000000E+00	    1.000000E-03	    1.000000E-03	    1.000000E+03	    0.000000E+00	    0.000000E+00	    2.120439E+07	    0.000000E+00	    1.000000E+00	    0.000000E+00	    0.000000E+00	
   -1.212706E-02	    6.246949E-04	    0.000000E+00	   -1.000000E+00	    1.000000E-03	    1.000000E-03	    1.000000E+03	    0.000000E+00	    0.000000E+00	    1.278104E+07	    0.000000E+00	    1.000000E+00	    0.000000E+00	    0.000000E+00	
   -1.211518E-02	    7.977369E-04	    0.000000E+00	   -1.000000E+00	    1.000000E-03	    1.000000E-03	    1.000000E+03	    0.000000E+00	    0.000000E+00	    7.838043E+06	    0.000000E+00	    1.000000E+00	    0.000000E+00	    0.000000E+00	
   -1.209726E-02	    1.009312E-03	    0.000000E+00	   -1.000000E+00	    1.000000E-03	    1.000000E-03	    1.000000E+03	    0.000000E+00	    0.000000E+00	    4.896735E+06	    0.000000E+00	    1.000000E+00	    0.000000E+00	    0.000000E+00	
   -1.207069E-02	    1.264512E-03	    0.000000E+00	   -1.000000E+00	    1.000000E-03	    1.000000E-03	    1.000000E+03	    0.000000E+00	    0.000000E+00	    3.119952E+06	    0.000000E+00	    1.000000E+00	    0.000000E+00	    0.000000E+00	
   -1.203196E-02	    1.567989E-03	    0.000000E+00	   -1.000000E+00	    1.000000E-03	    1.000000E-03	    1.000000E+03	    0.000000E+00	    0.000000E+00	    2.029324E+06	    0.000000E+00	    1.000000E+00	    0.000000E+00	    0.000000E+00	
   -1.197665E-02	    1.923554E-03	    0.000000E+00	   -1.000000E+00	    1.000000E-03	    1.000000E-03	    1.000000E+03	    0.000000E+00	    0.000000E+00	    1.348588E+06	    0.000000E+00	    1.000000E+00	    0.000000E+00	    0.000000E+00	
   -1.189934E-02	    2.333731E-03	    0.000000E+00	   -1.000000E+00	    1.000000E-03	    1.000000E-03	    1.000000E+03	    0.000000E+00	    0.000000E+00	    9.163157E+05	    0.000000E+00	    1.000000E+00	    0.000000E+00	    0.000000E+00	
   -1.179371E-02	    2.799291E-03	    0.000000E+00	   -1.000000E+00	    1.000000E-03	    1.000000E-03	    1.000000E+03	    0.000000E+00	    0.000000E+00	    6.369677E+05	    0.000000E+00	    1.000000E+00	    0.000000E+00	    0.000000E+00	
   -1.165276E-02	    3.318811E-03	    0.000000E+00	   -1.000000E+00	    1.000000E-03	    1.000000E-03	    1.000000E+03	    0.000000E+00	    0.000000E+00	    4.532343E+05	    0.000000E+00	    1.000000E+00	    0.000000E+00	    0.000000E+00	
   -1.146925E-02	    3.888331E-03	    0.000000E+00	   -1.000000E+00	    1.000000E-03	    1.000000E-03	    1.000000E+03	    0.000000E+00	    0.000000E+00	    3.302502E+05	    0.000000E+00	    1.000000E+00	    0.000000E+00	    0.000000E+00	
   -1.123626E-02	    4.501167E-03	    0.000000E+00	   -1.000000E+00	    1.000000E-03	    1.000000E-03	    1.000000E+03	    0.000000E+00	    0.000000E+00	    2.464946E+05	    0.000000E+00	    1.000000E+00	    0.000000E+00	    0.000000E+00	
   -1.094784E-02	    5.147962E-03	    0.000000E+00	   -1.000000E+00	    1.000000E-03	    1.000000E-03	    1.000000E+03	    0.000000E+00	    0.000000E+00	    1.884863E+05	    0.000000E+00	    1.000000E+00	    0.000000E+00	    0.000000E+00	
   -1.059983E-02	    5.817025E-03	    0.000000E+00	   -1.000000E+00	    1.000000E-03	    1.000000E-03	    1.000000E+03	    0.000000E+00	    0.000000E+00	    1.476541E+05	    0.000000E+00	    1.000000E+00	    0.000000E+00	    0.000000E+00	
   -1.019044E-02	    6.494952E-03	    0.000000E+00	   -1.000000E+00	    1.000000E-03	    1.000000E-03	    1.000000E+03	    0.000000E+00	    0.000000E+00	    1.184660E+05	    0.000000E+00	    1.000000E+00	    0.000000E+00	    0.000000E+00	
   -9.720744E-03	    7.167508E-03	    0.000000E+00	   -1.000000E+00	    1.000000E-03	    1.000000E-03	    1.000000E+03	    0.000000E+00	    0.000000E+00	    9.729879E+04	    0.000000E+00	    1.000000E+00	    0.000000E+00	    0.000000E+00	
   -9.194834E-03	    7.820637E-03	    0.000000E+00	   -1.000000E+00	    1.000000E-03	    1.000000E-03	    1.000000E+03	    0.000000E+00	    0.000000E+00	    8.174397E+04	    0.000000E+00	    1.000000E+00	    0.000000E+00	    0.000000E+00	
   -8.619619E-03	    8.441483E-03	    0.000000E+00	   -1.000000E+00	    1.000000E-03	    1.000000E-03	    1.000000E+03	    0.000000E+00	    0.000000E+00	    7.017701E+04	    0.000000E+00	    1.000000E+00	    0.000000E+00	    0.000000E+00	
   -8.004317E-03	    9.019255E-03	    0.000000E+00	   -1.000000E+00	    1.000000E-03	    1.000000E-03	    1.000000E+03	    0.000000E+00	    0.000000E+00	    6.148622E+04	    0.000000E+00	    1.000000E+00	    0.000000E+00	    0.000000E+00	
   -7.359702E-03	    9.545831E-03	    0.000000E+00	   -1.000000E+00	    1.000000E-03	    1.000000E-03	    1.000000E+03	    0.000000E+00	    0.000000E+00	    5.489994E+04	    0.000000E+00	    1.000000E+00	    0.000000E+00	    0.000000E+00	
   -6.697247E-03	    1.001602E-02	    0.000000E+00	   -1.000000E+00	    1.000000E-03	    1.000000E-03	    1.000000E+03	    0.000000E+00	    0.000000E+00	    4.987479E+04	    0.000000E+00	    1.000000E+00	    0.000000E+00	    0.000000E+00	
   -6.028288E-03	    1.042754E-02	    0.000000E+00	   -1.000000E+00	    1.000000E-03	    1.000000E-03	    1.000000E+03	    0.000000E+00	    0.000000E+00	    4.602272E+04	    0.000000E+00	    1.000000E+00	    0.000000E+00	    0.000000E+00	
   -5.363328E-03	    1.078067E-02	    0.000000E+00	   -1.000000E+00	    1.000000E-03	    1.000000E-03	    1.000000E+03	    0.000000E+00	    0.000000E+00	    4.306265E+04	    0.000000E+00	    1.000000E+00	    0.000000E+00	    0.000000E+00	
   -4.711536E-03	    1.107778E-02	    0.000000E+00	   -1.000000E+00	    1.000000E-03	    1.000000E-03	    1.000000E+03	    0.000000E+00	    0.000000E+00	    4.078812E+04	    0.000000E+00	    1.000000E+00	    0.000000E+00	    0.000000E+00	
   -4.080454E-03	    1.132282E-02	    0.000000E+00	   -1.000000E+00	    1.000000E-03	    1.000000E-03	    1.000000E+03	    0.000000E+00	    0.000000E+00	    3.904540E+04	    0.000000E+00	    1.000000E+00	    0.000000E+00	    0.000000E+00	
   -3.475907E-03	    1.152069E-02	    0.000000E+00	   -1.000000E+00	    1.000000E-03	    1.000000E-03	    1.000000E+03	    0.000000E+00	    0.000000E+00	    3.771848E+04	    0.000000E+00	    1.000000E+00	    0.000000E+00	    0.000000E+00	
   -2.902065E-03	    1.167683E-02	    0.000000E+00	   -1.000000E+00	    1.000000E-03	    1.000000E-03	    1.000000E+03	    0.000000E+00	    0.000000E+00	    3.671868E+04	    0.000000E+00	    1.000000E+00	    0.000000E+00	    0.000000E+00	
   -2.361599E-03	    1.179678E-02	    0.000000E+00	   -1.000000E+00	    1.000000E-03	    1.000000E-03	    1.000000E+03	    0.000000E+00	    0.000000E+00	    3.597739E+04	    0.000000E+00	    1.000000E+00	    0.000000E+00	    0.000000E+00	
   -1.855907E-03	    1.188592E-02	    0.000000E+00	   -1.000000E+00	    1.000000E-03	    1.000000E-03	    1.000000E+03	    0.000000E+00	    0.000000E+00	    3.544098E+04	    0.000000E+00	    1.000000E+00	    0.000000E+00	    0.000000E+00	
   -1.385345E-03	    1.194926E-02	    0.000000E+00	   -1.000000E+00	    1.000000E-03	    1.000000E-03	    1.000000E+03	    0.000000E+00	    0.000000E+00	    3.506707E+04	    0.000000E+00	    1.000000E+00	    0.000000E+00	    0.000000E+00	
   -9.494686E-04	    1.199134E-02	    0.000000E+00	   -1.000000E+00	    1.000000E-03	    1.000000E-03	    1.000000E+03	    0.000000E+00	    0.000000E+00	    3.482194E+04	    0.000000E+00	    1.000000E+00	    0.000000E+00	    0.000000E+00	
   -5.472339E-04	    1.201617E-02	    0.000000E+00	   -1.000000E+00	    1.000000E-03	    1.000000E-03	    1.000000E+03	    0.000000E+00	    0.000000E+00	    3.467854E+04	    0.000000E+00	    1.000000E+00	    0.000000E+00	    0.000000E+00	
   -1.771813E-04	    1.202721E-02	    0.000000E+00	   -1.000000E+00	    1.000000E-03	    1.000000E-03	    1.000000E+03	    0.000000E+00	    0.000000E+00	    3.461506E+04	    0.000000E+00	    1.000000E+00	    0.000000E+00	    0.000000E+00	
    1.771813E-04	    1.202721E-02	    0.000000E+00	   -1.000000E+00	    1.000000E-03	    1.000000E-03	    1.000000E+03	    0.000000E+00	    0.000000E+00	    3.461506E+04	    0.000000E+00	    1.000000E+00	    0.000000E+00	    0.000000E+00	
    5.472339E-04	    1.201617E-02	    0.000000E+00	   -1.000000E+00	    1.000000E-03	    1.000000E-03	    1.000000E+03	    0.000000E+00	    0.000000E+00	    3.467854E+04	    0.000000E+00	    1.000000E+00	    0.000000E+00	    0.000000E+00	
    9.494686E-04	    1.199134E-02	    0.000000E+00	   -1.000000E+00	    1.000000E-03	    1.000000E-03	    1.000000E+03	    0.000000E+00	    0.000000E+00	    3.482194E+04	    0.000000E+00	    1.000000E+00	    0.000000E+00	    0.000000E+00	
    1.385345E-03	    1.194926E-02	    0.000000E+00	   -1.000000E+00	    1.000000E-03	    1.000000E-03	    1.000000E+03	    0.000000E+00	    0.000000E+00	    3.506707E+04	    0.000000E+00	    1.000000E+00	    0.000000E+00	    0.000000E+00	
    1.855907E-03	    1.188592E-02	    0.000000E+00	   -1.000000E+00	    1.000000E-03	    1.000000E-03	    1.000000E+03	    0.000000E+00	    0.000000E+00	    3.544098E+04	    0.000000E+00	    1.000000E+00	    0.000000E+00	    0.000000E+00	
    2.361599E-03	    1.179678E-02	    0.000000E+00	   -1.000000E+00	    1.000000E-03	    1.000000E-03	    1.000000E+03	    0.000000E+00	    0.000000E+00	    3.597739E+04	    0.000000E+00	    1.000000E+00	    0.000000E+00	    0.000000E+00	
    2.902065E-03	    1.167683E-02	    0.000000E+00	   -1.000000E+00	    1.000000E-03	    1.000000E-03	    1.000000E+03	    0.000000E+00	    0.000000E+00	    3.671868E+04	    0.000000E+00	    1.000000E+00	    0.000000E+00	    0.000000E+00	
    3.475907E-03	    1.152069E-02	    0.000000E+00	   -1.000000E+00	    1.000000E-03	    1.000000E-03	    1.000000E+03	    0.000000E+00	    0.000000E+00	    3.771848E+04	    0.000000E+00	    1.000000E+00	    0.000000E+00	    0.000000E+00	
    4.080454E-03	    1.132282E-02	    0.000000E+00	   -1.000000E+00	    1.000000E-03	    1.000000E-03	    1.000000E+03	    0.000000E+00	    0.000000E+00	    3.904540E+04	    0.000000E+00	    1.000000E+00	    0.000000E+00	    0.000000E+00	
    4.711536E-03	    1.107778E-02	    0.000000E+00	   -1.000000E+00	    1.000000E-03	    1.000000E-03	    1.000000E+03	    0.000000E+00	    0.000000E+00	    4.078812E+04	    0.000000E+00	    1.000000E+00	    0.000000E+00	    0.000000E+00	
    5.363328E-03	    1.078067E-02	    0.000000E+00	   -1.000000E+00	    1.000000E-03	    1.000000E-03	    1.000000E+03	    0.000000E+00	    0.000000E+00	    4.306265E+04	    0.000000E+00	    1.000000E+00	    0.000000E+00	    0.000000E+00	
    6.028288E-03	    1.042754E-02	    0.000000E+00	   -1.000000E+00	    1.000000E-03	    1.000000E-03	    1.000000E+03	    0.000000E+00	    0.000000E+00	    4.602272E+04	    0.000000E+00	    1.000000E+00	    0.000000E+00	    0.000000E+00	
    6.697247E-03	    1.001602E-02	    0.000000E+00	   -1.000000E+00	    1.000000E-03	    1.000000E-03	    1.000000E+03	    0.000000E+00	    0.000000E+00	    4.987479E+04	    0.000000E+00	    1.000000E+00	    0.000000E+00	    0.000000E+00	
    7.359702E-03	    9.545831E-03	    0.000000E+00	   -1.000000E+00	    1.000000E-03	    1.000000E-03	    1.000000E+03	    0.000000E+00	    0.000000E+00	    5.489994E+04	    0.000000E+00	    1.000000E+00	    0.000000E+00	    0.000000E+00	
    8.004317E-03	    9.019255E-03	    0.000000E+00	   -1.000000E+00	    1.000000E-03	    1.000000E-03	    1.000000E+03	    0.000000E+00	    0.000000E+00	    6.148622E+04	    0.000000E+00	    1.000000E+00	    0.000000E+00	    0.000000E+00	
    8.619619E-03	    8.441483E-03	    0.000000E+00	   -1.000000E+00	    1.000000E-03	    1.000000E-03	    1.000000E+03	    0.000000E+00	    0.000000E+00	    7.017701E+04	    0.000000E+00	    1.000000E+00	    0.000000E+00	    0.000000E+00	
    9.194834E-03	    7.820637E-03	    0.000000E+00	   -1.000000E+00	    1.000000E-03	    1.000000E-03	    1.000000E+03	    0.000000E+00	    0.000000E+00	    8.174397E+04	    0.000000E+00	    1.000000E+00	    0.000000E+00	    0.000000E+00	
    9.720744E-03	    7.167508E-03	    0.000000E+00	   -1.000000E+00	    1.000000E-03	    1.000000E-03	    1.000000E+03	    0.000000E+00	    0.000000E+00	    9.729879E+04	    0.000000E+00	    1.000000E+00	    0.000000E+00	    0.000000E+00	
    1.019044E-02	    6.494952E-03	    0.000000E+00	   -1.000000E+00	    1.000000E-03	    1.000000E-03	    1.000000E+03	    0.000000E+00	    0.000000E+00	    1.184660E+05	    0.000000E+00	    1.000000E+00	    0.000000E+00	    0.000000E+00	
    1.059983E-02	    5.817025E-03	    0.000000E+00	   -1.000000E+00	    1.000000E-03	    1.000000E-03	    1.000000E+03	    0.000000E+00	    0.000000E+00	    1.476541E+05	    0.000000E+00	    1.000000E+00	    0.000000E+00	    0.000000E+00	
    1.094784E-02	    5.147962E-03	    0.000000E+00	   -1.000000E+00	    1.000000E-03	    1.000000E-03	    1.000000E+03	    0.000000E+00	    0.000000E+00	    1.884863E+05	    0.000000E+00	    1.000000E+00	    0.000000E+00	    0.000000E+00	
    1.123626E-02	    4.501167E-03	    0.000000E+00	   -1.000000E+00	    1.000000E-03	    1.000000E-03	    1.000000E+03	    0.000000E+00	    0.000000E+00	    2.464946E+05	    0.000000E+00	    1.000000E+00	    0.000000E+00	    0.000000E+00	
    1.146925E-02	    3.888331E-03	    0.000000E+00	   -1.000000E+00	    1.000000E-03	    1.000000E-03	    1.000000E+03	    0.000000E+00	    0.000000E+00	    3.302502E+05	    0.000000E+00	    1.000000E+00	    0.000000E+00	    0.000000E+00	
    1.165276E-02	    3.318811E-03	    0.000000E+00	   -1.000000E+00	    1.000000E-03	    1.000000E-03	    1.000000E+03	    0.000000E+00	    0.000000E+00	    4.532343E+05	    0.000000E+00	    1.000000E+00	    0.000000E+00	    0.000000E+00	
    1.179371E-02	    2.799291E-03	    0.000000E+00	   -1.000000E+00	    1.000000E-03	    1.000000E-03	    1.000000E+03	    0.000000E+00	    0.000000E+00	    6.369677E+05	    0.000000E+00	    1.000000E+00	    0.000000E+00	    0.000000E+00	
    1.189934E-02	    2.333731E-03	    0.000000E+00	   -1.000000E+00	    1.000000E-03	    1.000000E-03	    1.000000E+03	    0.000000E+00	    0.000000E+00	    9.163157E+05	    0.000000E+00	    1.000000E+00	    0.000000E+00	    0.000000E+00	
    1.197665E-02	    1.923554E-03	    0.000000E+00	   -1.000000E+00	    1.000000E-03	    1.000000E-03	    1.000000E+03	    0.000000E+00	    0.000000E+00	    1.348588E+06	    0.000000E+00	    1.000000E+00	    0.000000E+00	    0.000000E+00	
    1.203196E-02	    1.567989E-03	    0.000000E+00	   -1.000000E+00	    1.000000E-03	    1.000000E-03	    1.000000E+03	    0.000000E+00	    0.000000E+00	    2.029324E+06	    0.000000E+00	    1.000000E+00	    0.000000E+00	    0.000000E+00	
    1.207069E-02	    1.264512E-03	    0.000000E+00	   -1.000000E+00	    1.000000E-03	    1.000000E-03	    1.000000E+03	    0.000000E+00	    0.000000E+00	    3.119952E+06	    0.000000E+00	    1.000000E+00	    0.000000E+00	    0.000000E+00	
    1.209726E-02	    1.009312E-03	    0.000000E+00	   -1.000000E+00	    1.000000E-03	    1.000000E-03	    1.000000E+03	    0.000000E+00	    0.000000E+00	    4.896735E+06	    0.000000E+00	    1.000000E+00	    0.000000E+00	    0.000000E+00	
    1.211518E-02	    7.977369E-04	    0.000000E+00	   -1.000000E+00	    1.000000E-03	    1.000000E-03	    1.000000E+03	    0.000000E+00	    0.000000E+00	    7.838043E+06	    0.000000E+00	    1.000000E+00	    0.000000E+00	    0.000000E+00	
    1.212706E-02	    6.246949E-04	    0.000000E+00	   -1.000000E+00	    1.000000E-03	    1.000000E-03	    1.000000E+03	    0.000000E+00	    0.000000E+00	    1.278104E+07	    0.000000E+00	    1.000000E+00	    0.000000E+00	    0.000000E+00	
    1.213485E-02	    4.849849E-04	    0.000000E+00	   -1.000000E+00	    1.000000E-03	    1.000000E-03	    1.000000E+03	    0.000000E+00	    0.000000E+00	    2.120439E+07	    0.000000E+00	    1.000000E+00	    0.000000E+00	    0.000000E+00	
    1.213991E-02	    3.735571E-04	    0.000000E+00	   -1.000000E+00	    1.000000E-03	    1.000000E-03	    1.000000E+03	    0.000000E+00	    0.000000E+00	    3.573981E+07	    0.000000E+00	    1.000000E+00	    0.000000E+00	    0.000000E+00	
    1.214317E-02	    2.856999E-04	    0.000000E+00	   -1.000000E+00	    1.000000E-03	    1.000000E-03	    1.000000E+03	    0.000000E+00	    0.000000E+00	    6.109890E+07	    0.000000E+00	    1.000000E+00	    0.000000E+00	    0.000000E+00	
    1.214528E-02	    2.171613E-04	    0.000000E+00	   -1.000000E+00	    1.000000E-03	    1.000000E-03	    1.000000E+03	    0.000000E+00	    0.000000E+00	    1.057497E+08	    0.000000E+00	    1.000000E+00	    0.000000E+00	    0.000000E+00	
    1.214664E-02	    1.642119E-04	    0.000000E+00	   -1.000000E+00	    1.000000E-03	    1.000000E-03	    1.000000E+03	    0.000000E+00	    0.000000E+00	    1.849385E+08	    0.000000E+00	    1.000000E+00	    0.000000E+00	    0.000000E+00	
    1.214753E-02	    1.236630E-04	    0.000000E+00	   -1.000000E+00	    1.000000E-03	    1.000000E-03	    1.000000E+03	    0.000000E+00	    0.000000E+00	    3.261000E+08	    0.000000E+00	    1.000000E+00	    0.000000E+00	    0.000000E+00	
    1.214811E-02	    9.284917E-05	    0.000000E+00	   -1.000000E+00	    1.000000E-03	    1.000000E-03	    1.000000E+03	    0.000000E+00	    0.000000E+00	    5.784556E+08	    0.000000E+00	    1.000000E+00	    0.000000E+00	    0.000000E+00	
    1.214850E-02	    6.958711E-05	    0.000000E+00	   -1.000000E+00	    1.000000E-03	    1.000000E-03	    1.000000E+03	    0.000000E+00	    0.000000E+00	    1.029829E+09	    0.000000E+00	    1.000000E+00	    0.000000E+00	    0.000000E+00	
    1.214864E-02	    6.022430E-05	    0.000000E+00	   -1.000000E+00	    1.000000E-03	    1.000000E-03	    1.000000E+03	    0.000000E+00	    0.000000E+00	    0.000000E+00	    0.000000E+00	    1.000000E+00	    0.000000E+00	    0.000000E+00	
   -1.214840E-02	    6.022021E-05	    0.000000E+00	   -1.000000E+00	    1.000000E-03	    1.000000E-03	    1.000000E+03	    0.000000E+00	    0.000000E+00	    0.000000E+00	    0.000000E+00	    1.000000E+00	    0.000000E+00	    0.000000E+00	
   -1.214822E-02	    6.958217E-05	    3.356632E-05	   -1.000000E+00	    1.000000E-03	    1.000000E-03	    1.000000E+03	    1.694361E-16	    1.744902E-10	    1.029829E+09	    1.451015E+04	    1.000000E+00	    2.787164E-07	    7.625023E+00	
   -1.214774E-02	    9.284187E-05	    1.030685E-04	   -1.000000E+00	    1.000000E-03	    1.000000E-03	    1.000000E+03	    6.004822E-16	    3.473522E-10	    5.784556E+08	    7.680405E+04	    1.000000E+00	    3.718861E-07	    1.855529E+01	
   -1.214703E-02	    1.236520E-04	    1.808439E-04	   -1.000000E+00	    1.000000E-03	    1.000000E-03	    1.000000E+03	    3.285398E-15	    1.071368E-09	    3.261000E+08	    1.332908E+05	    1.000000E+00	    4.953014E-07	    3.223376E+01	
   -1.214598E-02	    1.641951E-04	    2.729920E-04	   -1.000000E+00	    1.000000E-03	    1.000000E-03	    1.000000E+03	    1.323618E-14	    2.447878E-09	    1.849385E+08	    1.722474E+05	    1.000000E+00	    6.577053E-07	    4.171179E+01	
   -1.214441E-02	    2.171353E-04	    3.861985E-04	   -1.000000E+00	    1.000000E-03	    1.000000E-03	    1.000000E+03	    4.653923E-14	    4.921510E-09	    1.057497E+08	    1.971089E+05	    1.000000E+00	    8.697720E-07	    4.784382E+01	
   -1.214203E-02	    2.856593E-04	    5.277153E-04	   -1.000000E+00	    1.000000E-03	    1.000000E-03	    1.000000E+03	    1.513385E-13	    9.246615E-09	    6.109890E+07	    2.126243E+05	    1.000000E+00	    1.144269E-06	    5.177396E+01	
   -1.213842E-02	    3.734931E-04	    7.051371E-04	   -1.000000E+00	    1.000000E-03	    1.000000E-03	    1.000000E+03	    4.657412E-13	    1.664551E-08	    3.573981E+07	    2.220474E+05	    1.000000E+00	    1.496128E-06	    5.429517E+01	
   -1.213291E-02	    4.848841E-04	    9.263809E-04	   -1.000000E+00	    1.000000E-03	    1.000000E-03	    1.000000E+03	    1.369368E-12	    2.903661E-08	    2.120439E+07	    2.273565E+05	    1.000000E+00	    1.942371E-06	    5.589528E+01	
   -1.212457E-02	    6.245362E-04	    1.200052E-03	   -1.000000E+00	    1.000000E-03	    1.000000E-03	    1.000000E+03	    3.864854E-12	    4.939687E-08	    1.278104E+07	    2.299392E+05	    1.000000E+00	    2.501853E-06	    5.692500E+01	
   -1.211199E-02	    7.974888E-04	    1.535588E-03	   -1.000000E+00	    1.000000E-03	    1.000000E-03	    1.000000E+03	    1.050003E-11	    8.229969E-08	    7.838043E+06	    2.308517E+05	    1.000000E+00	    3.194782E-06	    5.765916E+01	
   -1.209324E-02	    1.008928E-03	    1.942729E-03	   -1.000000E+00	    1.000000E-03	    1.000000E-03	    1.000000E+03	    2.749222E-11	    1.346221E-07	    4.896735E+06	    2.307918E+05	    1.000000E+00	    4.041957E-06	    5.828594E+01	
   -1.206566E-02	    1.263924E-03	    2.430712E-03	   -1.000000E+00	    1.000000E-03	    1.000000E-03	    1.000000E+03	    6.936758E-11	    2.164235E-07	    3.119952E+06	    2.301435E+05	    1.000000E+00	    5.063736E-06	    5.891427E+01	
   -1.202575E-02	    1.567103E-03	    3.008091E-03	   -1.000000E+00	    1.000000E-03	    1.000000E-03	    1.000000E+03	    1.686097E-10	    3.421636E-07	    2.029324E+06	    2.291875E+05	    1.000000E+00	    6.278694E-06	    5.962741E+01	
   -1.196906E-02	    1.922243E-03	    3.680872E-03	   -1.000000E+00	    1.000000E-03	    1.000000E-03	    1.000000E+03	    3.942452E-10	    5.316745E-07	    1.348588E+06	    2.279762E+05	    1.000000E+00	    7.702032E-06	    6.044214E+01	
   -1.189019E-02	    2.331825E-03	    4.452175E-03	   -1.000000E+00	    1.000000E-03	    1.000000E-03	    1.000000E+03	    8.853226E-10	    8.112350E-07	    9.163157E+05	    2.265296E+05	    1.000000E+00	    9.343777E-06	    6.135889E+01	
   -1.178283E-02	    2.796576E-03	    5.321889E-03	   -1.000000E+00	    1.000000E-03	    1.000000E-03	    1.000000E+03	    1.906374E-09	    1.214298E-06	    6.369677E+05	    2.248979E+05	    1.000000E+00	    1.120692E-05	    6.237817E+01	
   -1.164002E-02	    3.315025E-03	    6.286546E-03	   -1.000000E+00	    1.000001E-03	    1.000000E-03	    1.000000E+03	    3.930933E-09	    1.781634E-06	    4.532343E+05	    2.231816E+05	    1.000000E+00	    1.328568E-05	    6.350833E+01	
   -1.145457E-02	    3.883167E-03	    7.339801E-03	   -1.000000E+00	    1.000001E-03	    1.000000E-03	    1.000000E+03	    7.755369E-09	    2.561212E-06	    3.302502E+05	    2.215507E+05	    1.000000E+00	    1.556409E-05	    6.477934E+01	
   -1.121961E-02	    4.494282E-03	    8.467598E-03	   -1.000000E+00	    1.000002E-03	    1.000000E-03	    1.000000E+03	    1.461073E-08	    3.601466E-06	    2.464946E+05	    2.199452E+05	    1.000000E+00	    1.801531E-05	    6.614442E+01	
   -1.092930E-02	    5.138994E-03	    9.647788E-03	   -1.000000E+00	    1.000004E-03	    1.000000E-03	    1.000000E+03	    2.620389E-08	    4.939074E-06	    1.884863E+05	    2.181826E+05	    1.000000E+00	    2.060183E-05	    6.748633E+01	
   -1.057954E-02	    5.805612E-03	    1.086735E-02	   -1.000000E+00	    1.000007E-03	    1.000000E-03	    1.000000E+03	    4.483561E-08	    6.620159E-06	    1.476541E+05	    2.166968E+05	    1.000000E+00	    2.327681E-05	    6.894260E+01	
   -1.016867E-02	    6.480764E-03	    1.209671E-02	   -1.000000E+00	    1.000011E-03	    1.000000E-03	    1.000000E+03	    7.298667E-08	    8.646437E-06	    1.184660E+05	    2.152469E+05	    1.000000E+00	    2.598664E-05	    7.036589E+01	
   -9.697830E-03	    7.150269E-03	    1.330479E-02	   -1.000000E+00	    1.000017E-03	    1.000000E-03	    1.000000E+03	    1.129554E-07	    1.099043E-05	    9.729879E+04	    2.136741E+05	    1.000000E+00	    2.867440E-05	    7.166439E+01	
   -9.171190E-03	    7.800151E-03	    1.448237E-02	   -1.000000E+00	    1.000025E-03	    1.000000E-03	    1.000000E+03	    1.669487E-07	    1.364705E-05	    8.174397E+04	    2.125009E+05	    1.000000E+00	    3.128395E-05	    7.302855E+01	
   -8.595699E-03	    8.417653E-03	    1.560664E-02	   -1.000000E+00	    1.000035E-03	    1.000000E-03	    1.000000E+03	    2.358351E-07	    1.655020E-05	    7.017701E+04	    2.116493E+05	    1.000000E+00	    3.376400E-05	    7.440120E+01	
   -7.980589E-03	    8.992087E-03	    1.663135E-02	   -1.000000E+00	    1.000048E-03	    1.000000E-03	    1.000000E+03	    3.171580E-07	    1.950085E-05	    6.148622E+04	    2.103723E+05	    1.000000E+00	    3.607154E-05	    7.540527E+01	
   -7.336616E-03	    9.515429E-03	    1.756635E-02	   -1.000000E+00	    1.000061E-03	    1.000000E-03	    1.000000E+03	    4.096319E-07	    2.248877E-05	    5.489994E+04	    2.093330E+05	    1.000000E+00	    3.817421E-05	    7.636617E+01	
   -6.675207E-03	    9.982582E-03	    1.840277E-02	   -1.000000E+00	    1.000076E-03	    1.000000E-03	    1.000000E+03	    5.095514E-07	    2.541377E-05	    4.987479E+04	    2.084973E+05	    1.000000E+00	    4.005144E-05	    7.726063E+01	
   -6.007637E-03	    1.039132E-02	    1.913538E-02	   -1.000000E+00	    1.000092E-03	    1.000000E-03	    1.000000E+03	    6.122786E-07	    2.817872E-05	    4.602272E+04	    2.078094E+05	    1.000000E+00	    4.169417E-05	    7.805917E+01	
   -5.344335E-03	    1.074197E-02	    1.976427E-02	   -1.000000E+00	    1.000107E-03	    1.000000E-03	    1.000000E+03	    7.130975E-07	    3.070787E-05	    4.306265E+04	    2.072404E+05	    1.000000E+00	    4.310363E-05	    7.875074E+01	
   -4.694393E-03	    1.103695E-02	    2.029350E-02	   -1.000000E+00	    1.000121E-03	    1.000000E-03	    1.000000E+03	    8.078390E-07	    3.295023E-05	    4.078812E+04	    2.067719E+05	    1.000000E+00	    4.428941E-05	    7.933469E+01	
   -4.065280E-03	    1.128017E-02	    2.073000E-02	   -1.000000E+00	    1.000134E-03	    1.000000E-03	    1.000000E+03	    8.933066E-07	    3.487951E-05	    3.904540E+04	    2.063904E+05	    1.000000E+00	    4.526725E-05	    7.981659E+01	
   -3.462757E-03	    1.147655E-02	    2.108251E-02	   -1.000000E+00	    1.000145E-03	    1.000000E-03	    1.000000E+03	    9.674557E-07	    3.649096E-05	    3.771848E+04	    2.060844E+05	    1.000000E+00	    4.605682E-05	    8.020544E+01	
   -2.890937E-03	    1.163149E-02	    2.136067E-02	   -1.000000E+00	    1.000154E-03	    1.000000E-03	    1.000000E+03	    1.029357E-06	    3.779663E-05	    3.671868E+04	    2.058437E+05	    1.000000E+00	    4.667982E-05	    8.051185E+01	
   -2.352451E-03	    1.175052E-02	    2.157436E-02	   -1.000000E+00	    1.000162E-03	    1.000000E-03	    1.000000E+03	    1.079018E-06	    3.882027E-05	    3.597739E+04	    2.056588E+05	    1.000000E+00	    4.715842E-05	    8.074684E+01	
   -1.848663E-03	    1.183896E-02	    2.173314E-02	   -1.000000E+00	    1.000168E-03	    1.000000E-03	    1.000000E+03	    1.117141E-06	    3.959257E-05	    3.544098E+04	    2.055211E+05	    1.000000E+00	    4.751407E-05	    8.092107E+01	
   -1.379910E-03	    1.190181E-02	    2.184593E-02	   -1.000000E+00	    1.000172E-03	    1.000000E-03	    1.000000E+03	    1.144872E-06	    4.014732E-05	    3.506707E+04	    2.054225E+05	    1.000000E+00	    4.776679E-05	    8.104449E+01	
   -9.457302E-04	    1.194356E-02	    2.192081E-02	   -1.000000E+00	    1.000175E-03	    1.000000E-03	    1.000000E+03	    1.163590E-06	    4.051845E-05	    3.482194E+04	    2.053561E+05	    1.000000E+00	    4.793468E-05	    8.112602E+01	
   -5.450748E-04	    1.196818E-02	    2.196491E-02	   -1.000000E+00	    1.000176E-03	    1.000000E-03	    1.000000E+03	    1.174736E-06	    4.073811E-05	    3.467854E+04	    2.053154E+05	    1.000000E+00	    4.803372E-05	    8.117347E+01	
   -1.764816E-04	    1.197914E-02	    2.198436E-02	   -1.000000E+00	    1.000177E-03	    1.000000E-03	    1.000000E+03	    1.179700E-06	    4.083540E-05	    3.461506E+04	    2.052946E+05	    1.000000E+00	    4.807776E-05	    8.119338E+01	
    1.764816E-04	    1.197914E-02	    2.198436E-02	   -1.000000E+00	    1.000177E-03	    1.000000E-03	    1.000000E+03	    1.179700E-06	    4.083540E-05	    3.461506E+04	    2.052946E+05	    1.000000E+00	    4.807776E-05	    8.119339E+01	