Title="Fields"
Variables="X""Y""Velocity""Phi""Effective Viscosity""Dynamic Viscosity""Density""Eddy Viscosity""K""Omega""S""F1SST""distance""GEN"
Zone I=52 J=52 F=POINT
   -1.182656E-02	    5.700429E-05	    0.000000E+00	    0.000000E+00	    1.000000E-03	    1.000000E-03	    1.000000E+03	    0.000000E+00	    0.000000E+00	    4.777734E+08	    0.000000E+00	    1.000000E+00	    0.000000E+00	    0.000000E+00	
   -1.183004E-02	    7.183661E-05	    0.000000E+00	    0.000000E+00	    1.000000E-03	    1.000000E-03	    1.000000E+03	    0.000000E+00	    0.000000E+00	    4.777734E+08	    0.000000E+00	    1.000000E+00	    0.000000E+00	    0.000000E+00	
   -1.183979E-02	    1.138309E-04	    0.000000E+00	    0.000000E+00	    1.000000E-03	    1.000000E-03	    1.000000E+03	    0.000000E+00	    0.000000E+00	    1.902852E+08	    0.000000E+00	    1.000000E+00	    0.000000E+00	    0.000000E+00	
   -1.185465E-02	    1.791486E-04	    0.000000E+00	    0.000000E+00	    1.000000E-03	    1.000000E-03	    1.000000E+03	    0.000000E+00	    0.000000E+00	    7.682770E+07	    0.000000E+00	    1.000000E+00	    0.000000E+00	    0.000000E+00	
   -1.187660E-02	    2.788238E-04	    0.000000E+00	    0.000000E+00	    1.000000E-03	    1.000000E-03	    1.000000E+03	    0.000000E+00	    0.000000E+00	    3.171858E+07	    0.000000E+00	    1.000000E+00	    0.000000E+00	    0.000000E+00	
   -1.190772E-02	    4.275203E-04	    0.000000E+00	    0.000000E+00	    1.000000E-03	    1.000000E-03	    1.000000E+03	    0.000000E+00	    0.000000E+00	    1.349282E+07	    0.000000E+00	    1.000000E+00	    0.000000E+00	    0.000000E+00	
   -1.194952E-02	    6.437378E-04	    0.000000E+00	    0.000000E+00	    1.000000E-03	    1.000000E-03	    1.000000E+03	    0.000000E+00	    0.000000E+00	    5.951965E+06	    0.000000E+00	    1.000000E+00	    0.000000E+00	    0.000000E+00	
   -1.200173E-02	    9.494710E-04	    0.000000E+00	    0.000000E+00	    1.000000E-03	    1.000000E-03	    1.000000E+03	    0.000000E+00	    0.000000E+00	    2.736548E+06	    0.000000E+00	    1.000000E+00	    0.000000E+00	    0.000000E+00	
   -1.206041E-02	    1.369074E-03	    0.000000E+00	    0.000000E+00	    1.000000E-03	    1.000000E-03	    1.000000E+03	    0.000000E+00	    0.000000E+00	    1.316538E+06	    0.000000E+00	    1.000000E+00	    0.000000E+00	    0.000000E+00	
   -1.211552E-02	    1.927075E-03	    0.000000E+00	    0.000000E+00	    1.000000E-03	    1.000000E-03	    1.000000E+03	    0.000000E+00	    0.000000E+00	    6.647382E+05	    0.000000E+00	    1.000000E+00	    0.000000E+00	    0.000000E+00	
   -1.214840E-02	    2.644711E-03	    0.000000E+00	    0.000000E+00	    1.000000E-03	    1.000000E-03	    1.000000E+03	    0.000000E+00	    0.000000E+00	    3.531002E+05	    0.000000E+00	    1.000000E+00	    0.000000E+00	    0.000000E+00	
   -1.213020E-02	    3.535103E-03	    0.000000E+00	    0.000000E+00	    1.000000E-03	    1.000000E-03	    1.000000E+03	    0.000000E+00	    0.000000E+00	    1.977456E+05	    0.000000E+00	    1.000000E+00	    0.000000E+00	    0.000000E+00	
   -1.202249E-02	    4.597443E-03	    0.000000E+00	    0.000000E+00	    1.000000E-03	    1.000000E-03	    1.000000E+03	    0.000000E+00	    0.000000E+00	    1.169999E+05	    0.000000E+00	    1.000000E+00	    0.000000E+00	    0.000000E+00	
   -1.178150E-02	    5.811431E-03	    0.000000E+00	    0.000000E+00	    1.000000E-03	    1.000000E-03	    1.000000E+03	    0.000000E+00	    0.000000E+00	    7.328330E+04	    0.000000E+00	    1.000000E+00	    0.000000E+00	    0.000000E+00	
   -1.136649E-02	    7.134268E-03	    0.000000E+00	    0.000000E+00	    1.000000E-03	    1.000000E-03	    1.000000E+03	    0.000000E+00	    0.000000E+00	    4.867005E+04	    0.000000E+00	    1.000000E+00	    0.000000E+00	    0.000000E+00	
   -1.075059E-02	    8.502841E-03	    0.000000E+00	    0.000000E+00	    1.000000E-03	    1.000000E-03	    1.000000E+03	    0.000000E+00	    0.000000E+00	    3.429602E+04	    0.000000E+00	    1.000000E+00	    0.000000E+00	    0.000000E+00	
   -9.930403E-03	    9.842483E-03	    0.000000E+00	    0.000000E+00	    1.000000E-03	    1.000000E-03	    1.000000E+03	    0.000000E+00	    0.000000E+00	    2.561986E+04	    0.000000E+00	    1.000000E+00	    0.000000E+00	    0.000000E+00	
   -8.930020E-03	    1.108056E-02	    0.000000E+00	    0.000000E+00	    1.000000E-03	    1.000000E-03	    1.000000E+03	    0.000000E+00	    0.000000E+00	    2.023299E+04	    0.000000E+00	    1.000000E+00	    0.000000E+00	    0.000000E+00	
   -7.796794E-03	    1.216019E-02	    0.000000E+00	    0.000000E+00	    1.000000E-03	    1.000000E-03	    1.000000E+03	    0.000000E+00	    0.000000E+00	    1.681376E+04	    0.000000E+00	    1.000000E+00	    0.000000E+00	    0.000000E+00	
   -6.590752E-03	    1.304888E-02	    0.000000E+00	    0.000000E+00	    1.000000E-03	    1.000000E-03	    1.000000E+03	    0.000000E+00	    0.000000E+00	    1.461205E+04	    0.000000E+00	    1.000000E+00	    0.000000E+00	    0.000000E+00	
   -5.372131E-03	    1.373963E-02	    0.000000E+00	    0.000000E+00	    1.000000E-03	    1.000000E-03	    1.000000E+03	    0.000000E+00	    0.000000E+00	    1.318741E+04	    0.000000E+00	    1.000000E+00	    0.000000E+00	    0.000000E+00	
   -4.191641E-03	    1.424586E-02	    0.000000E+00	    0.000000E+00	    1.000000E-03	    1.000000E-03	    1.000000E+03	    0.000000E+00	    0.000000E+00	    1.227222E+04	    0.000000E+00	    1.000000E+00	    0.000000E+00	    0.000000E+00	
   -3.085642E-03	    1.459345E-02	    0.000000E+00	    0.000000E+00	    1.000000E-03	    1.000000E-03	    1.000000E+03	    0.000000E+00	    0.000000E+00	    1.169821E+04	    0.000000E+00	    1.000000E+00	    0.000000E+00	    0.000000E+00	
   -2.075793E-03	    1.481316E-02	    0.000000E+00	    0.000000E+00	    1.000000E-03	    1.000000E-03	    1.000000E+03	    0.000000E+00	    0.000000E+00	    1.135602E+04	    0.000000E+00	    1.000000E+00	    0.000000E+00	    0.000000E+00	
   -1.171452E-03	    1.493519E-02	    0.000000E+00	    0.000000E+00	    1.000000E-03	    1.000000E-03	    1.000000E+03	    0.000000E+00	    0.000000E+00	    1.117246E+04	    0.000000E+00	    1.000000E+00	    0.000000E+00	    0.000000E+00	
   -3.730629E-04	    1.498607E-02	    0.000000E+00	    0.000000E+00	    1.000000E-03	    1.000000E-03	    1.000000E+03	    0.000000E+00	    0.000000E+00	    1.109725E+04	    0.000000E+00	    1.000000E+00	    0.000000E+00	    0.000000E+00	
    3.730629E-04	    1.498607E-02	    0.000000E+00	    0.000000E+00	    1.000000E-03	    1.000000E-03	    1.000000E+03	    0.000000E+00	    0.000000E+00	    1.109725E+04	    0.000000E+00	    1.000000E+00	    0.000000E+00	    0.000000E+00	
    1.171452E-03	    1.493519E-02	    0.000000E+00	    0.000000E+00	    1.000000E-03	    1.000000E-03	    1.000000E+03	    0.000000E+00	    0.000000E+00	    1.117246E+04	    0.000000E+00	    1.000000E+00	    0.000000E+00	    0.000000E+00	
    2.075793E-03	    1.481316E-02	    0.000000E+00	    0.000000E+00	    1.000000E-03	    1.000000E-03	    1.000000E+03	    0.000000E+00	    0.000000E+00	    1.135602E+04	    0.000000E+00	    1.000000E+00	    0.000000E+00	    0.000000E+00	
    3.085642E-03	    1.459345E-02	    0.000000E+00	    0.000000E+00	    1.000000E-03	    1.000000E-03	    1.000000E+03	    0.000000E+00	    0.000000E+00	    1.169821E+04	    0.000000E+00	    1.000000E+00	    0.000000E+00	    0.000000E+00	
    4.191641E-03	    1.424586E-02	    0.000000E+00	    0.000000E+00	    1.000000E-03	    1.000000E-03	    1.000000E+03	    0.000000E+00	    0.000000E+00	    1.227222E+04	    0.000000E+00	    1.000000E+00	    0.000000E+00	    0.000000E+00	
    5.372131E-03	    1.373963E-02	    0.000000E+00	    0.000000E+00	    1.000000E-03	    1.000000E-03	    1.000000E+03	    0.000000E+00	    0.000000E+00	    1.318741E+04	    0.000000E+00	    1.000000E+00	    0.000000E+00	    0.000000E+00	
    6.590752E-03	    1.304888E-02	    0.000000E+00	    0.000000E+00	    1.000000E-03	    1.000000E-03	    1.000000E+03	    0.000000E+00	    0.000000E+00	    1.461205E+04	    0.000000E+00	    1.000000E+00	    0.000000E+00	    0.000000E+00	
    7.796794E-03	    1.216019E-02	    0.000000E+00	    0.000000E+00	    1.000000E-03	    1.000000E-03	    1.000000E+03	    0.000000E+00	    0.000000E+00	    1.681376E+04	    0.000000E+00	    1.000000E+00	    0.000000E+00	    0.000000E+00	
    8.930020E-03	    1.108056E-02	    0.000000E+00	    0.000000E+00	    1.000000E-03	    1.000000E-03	    1.000000E+03	    0.000000E+00	    0.000000E+00	    2.023299E+04	    0.000000E+00	    1.000000E+00	    0.000000E+00	    0.000000E+00	
    9.930403E-03	    9.842483E-03	    0.000000E+00	    0.000000E+00	    1.000000E-03	    1.000000E-03	    1.000000E+03	    0.000000E+00	    0.000000E+00	    2.561986E+04	    0.000000E+00	    1.000000E+00	    0.000000E+00	    0.000000E+00	
    1.075059E-02	    8.502841E-03	    0.000000E+00	    0.000000E+00	    1.000000E-03	    1.000000E-03	    1.000000E+03	    0.000000E+00	    0.000000E+00	    3.429602E+04	    0.000000E+00	    1.000000E+00	    0.000000E+00	    0.000000E+00	
    1.136649E-02	    7.134268E-03	    0.000000E+00	    0.000000E+00	    1.000000E-03	    1.000000E-03	    1.000000E+03	    0.000000E+00	    0.000000E+00	    4.867005E+04	    0.000000E+00	    1.000000E+00	    0.000000E+00	    0.000000E+00	
    1.178150E-02	    5.811431E-03	    0.000000E+00	    0.000000E+00	    1.000000E-03	    1.000000E-03	    1.000000E+03	    0.000000E+00	    0.000000E+00	    7.328330E+04	    0.000000E+00	    1.000000E+00	    0.000000E+00	    0.000000E+00	
    1.202249E-02	    4.597443E-03	    0.000000E+00	    0.000000E+00	    1.000000E-03	    1.000000E-03	    1.000000E+03	    0.000000E+00	    0.000000E+00	    1.169999E+05	    0.000000E+00	    1.000000E+00	    0.000000E+00	    0.000000E+00	
    1.213020E-02	    3.535103E-03	    0.000000E+00	    0.000000E+00	    1.000000E-03	    1.000000E-03	    1.000000E+03	    0.000000E+00	    0.000000E+00	    1.977456E+05	    0.000000E+00	    1.000000E+00	    0.000000E+00	    0.000000E+00	
    1.214840E-02	    2.644711E-03	    0.000000E+00	    0.000000E+00	    1.000000E-03	    1.000000E-03	    1.000000E+03	    0.000000E+00	    0.000000E+00	    3.531002E+05	    0.000000E+00	    1.000000E+00	    0.000000E+00	    0.000000E+00	
    1.211552E-02	    1.927075E-03	    0.000000E+00	    0.000000E+00	    1.000000E-03	    1.000000E-03	    1.000000E+03	    0.000000E+00	    0.000000E+00	    6.647382E+05	    0.000000E+00	    1.000000E+00	    0.000000E+00	    0.000000E+00	
    1.206041E-02	    1.369074E-03	    0.000000E+00	    0.000000E+00	    1.000000E-03	    1.000000E-03	    1.000000E+03	    0.000000E+00	    0.000000E+00	    1.316538E+06	    0.000000E+00	    1.000000E+00	    0.000000E+00	    0.000000E+00	
    1.200173E-02	    9.494710E-04	    0.000000E+00	    0.000000E+00	    1.000000E-03	    1.000000E-03	    1.000000E+03	    0.000000E+00	    0.000000E+00	    2.736548E+06	    0.000000E+00	    1.000000E+00	    0.000000E+00	    0.000000E+00	
    1.194952E-02	    6.437378E-04	    0.000000E+00	    0.000000E+00	    1.000000E-03	    1.000000E-03	    1.000000E+03	    0.000000E+00	    0.000000E+00	    5.951965E+06	    0.000000E+00	    1.000000E+00	    0.000000E+00	    0.000000E+00	
    1.190772E-02	    4.275203E-04	    0.000000E+00	    0.000000E+00	    1.000000E-03	    1.000000E-03	    1.000000E+03	    0.000000E+00	    0.000000E+00	    1.349282E+07	    0.000000E+00	    1.000000E+00	    0.000000E+00	    0.000000E+00	
    1.187660E-02	    2.788238E-04	    0.000000E+00	    0.000000E+00	    1.000000E-03	    1.000000E-03	    1.000000E+03	    0.000000E+00	    0.000000E+00	    3.171858E+07	    0.000000E+00	    1.000000E+00	    0.000000E+00	    0.000000E+00	
    1.185465E-02	    1.791486E-04	    0.000000E+00	    0.000000E+00	    1.000000E-03	    1.000000E-03	    1.000000E+03	    0.000000E+00	    0.000000E+00	    7.682770E+07	    0.000000E+00	    1.000000E+00	    0.000000E+00	    0.000000E+00	
    1.183979E-02	    1.138309E-04	    0.000000E+00	    0.000000E+00	    1.000000E-03	    1.000000E-03	    1.000000E+03	    0.000000E+00	    0.000000E+00	    1.902852E+08	    0.000000E+00	    1.000000E+00	    0.000000E+00	    0.000000E+00	
    1.183004E-02	    7.183661E-05	    0.000000E+00	    0.000000E+00	    1.000000E-03	    1.000000E-03	    1.000000E+03	    0.000000E+00	    0.000000E+00	    4.777734E+08	    0.000000E+00	    1.000000E+00	    0.000000E+00	    0.000000E+00	
    1.182656E-02	    5.700429E-05	    0.000000E+00	    0.000000E+00	    1.000000E-03	    1.000000E-03	    1.000000E+03	    0.000000E+00	    0.000000E+00	    0.000000E+00	    0.000000E+00	    1.000000E+00	    0.000000E+00	    0.000000E+00	
   -1.182611E-02	    5.710773E-05	    0.000000E+00	    0.000000E+00	    1.000000E-03	    1.000000E-03	    1.000000E+03	    0.000000E+00	    0.000000E+00	    0.000000E+00	    0.000000E+00	    1.000000E+00	    0.000000E+00	    0.000000E+00	
   -1.182948E-02	    7.196625E-05	    1.777849E-04	   -1.000000E+00	    1.600000E-03	    1.600000E-03	    8.010000E+02	    4.067251E-15	    2.425998E-09	    4.777734E+08	    6.244544E+04	    1.000000E+00	    5.783327E-07	    5.596048E+01	
   -1.183890E-02	    1.140332E-04	    4.328751E-04	   -1.000000E+00	    1.600000E-03	    1.600000E-03	    8.010000E+02	    2.582237E-14	    6.134351E-09	    1.902852E+08	    1.472850E+05	    1.000000E+00	    9.164024E-07	    8.629214E+01	
   -1.185324E-02	    1.794591E-04	    7.636189E-04	   -1.000000E+00	    1.600000E-03	    1.600000E-03	    8.010000E+02	    1.992476E-13	    1.911078E-08	    7.682770E+07	    1.850300E+05	    1.000000E+00	    1.442214E-06	    1.084808E+02	
   -1.187441E-02	    2.792886E-04	    1.218607E-03	   -1.000000E+00	    1.600000E-03	    1.600000E-03	    8.010000E+02	    1.231576E-12	    4.876882E-08	    3.171858E+07	    1.945161E+05	    1.000000E+00	    2.244563E-06	    1.141741E+02	
   -1.190434E-02	    4.281908E-04	    1.857218E-03	   -1.000000E+00	    1.600000E-03	    1.600000E-03	    8.010000E+02	    6.752210E-12	    1.137407E-07	    1.349282E+07	    1.921600E+05	    1.000000E+00	    3.441418E-06	    1.130428E+02	
   -1.194442E-02	    6.446550E-04	    2.751878E-03	   -1.000000E+00	    1.600000E-03	    1.600000E-03	    8.010000E+02	    3.383395E-11	    2.514089E-07	    5.951965E+06	    1.860523E+05	    1.000000E+00	    5.181536E-06	    1.098498E+02	
   -1.199418E-02	    9.506311E-04	    3.985336E-03	   -1.000000E+00	    1.600000E-03	    1.600000E-03	    8.010000E+02	    1.559559E-10	    5.328099E-07	    2.736548E+06	    1.793402E+05	    1.000000E+00	    7.641652E-06	    1.064813E+02	
   -1.204947E-02	    1.370366E-03	    5.645835E-03	   -1.000000E+00	    1.600000E-03	    1.600000E-03	    8.010000E+02	    6.605551E-10	    1.085700E-06	    1.316538E+06	    1.730585E+05	    1.000000E+00	    1.101722E-05	    1.035943E+02	
   -1.210005E-02	    1.928180E-03	    7.825620E-03	   -1.000000E+00	    1.600000E-03	    1.600000E-03	    8.010000E+02	    2.567820E-09	    2.130996E-06	    6.647382E+05	    1.677512E+05	    1.000000E+00	    1.550470E-05	    1.015734E+02	
   -1.212713E-02	    2.644971E-03	    1.059344E-02	   -1.000000E+00	    1.600002E-03	    1.600000E-03	    8.010000E+02	    9.112290E-09	    4.016918E-06	    3.531002E+05	    1.631258E+05	    1.000000E+00	    2.127355E-05	    1.002768E+02	
   -1.210183E-02	    3.533367E-03	    1.397857E-02	   -1.000000E+00	    1.600005E-03	    1.600000E-03	    8.010000E+02	    2.934337E-08	    7.244097E-06	    1.977456E+05	    1.588688E+05	    1.000000E+00	    2.842731E-05	    9.951305E+01	
   -1.198594E-02	    4.591957E-03	    1.796260E-02	   -1.000000E+00	    1.600015E-03	    1.600000E-03	    8.010000E+02	    8.532955E-08	    1.246386E-05	    1.169999E+05	    1.549720E+05	    1.000000E+00	    3.695706E-05	    9.924238E+01	
   -1.173627E-02	    5.799842E-03	    2.249212E-02	   -1.000000E+00	    1.600040E-03	    1.600000E-03	    8.010000E+02	    2.239199E-07	    2.048638E-05	    7.328330E+04	    1.519095E+05	    1.000000E+00	    4.669711E-05	    9.978834E+01	
   -1.131296E-02	    7.113823E-03	    2.730022E-02	   -1.000000E+00	    1.600094E-03	    1.600000E-03	    8.010000E+02	    5.207111E-07	    3.163925E-05	    4.867005E+04	    1.482828E+05	    1.000000E+00	    5.730158E-05	    9.996379E+01	
   -1.069030E-02	    8.470821E-03	    3.230902E-02	   -1.000000E+00	    1.600196E-03	    1.600000E-03	    8.010000E+02	    1.088417E-06	    4.660219E-05	    3.429602E+04	    1.459356E+05	    1.000000E+00	    6.826297E-05	    1.011704E+02	
   -9.865999E-03	    9.796762E-03	    3.706651E-02	   -1.000000E+00	    1.600360E-03	    1.600000E-03	    8.010000E+02	    2.001223E-06	    6.400881E-05	    2.561986E+04	    1.429771E+05	    1.000000E+00	    7.898306E-05	    1.016086E+02	
   -8.864871E-03	    1.102010E-02	    4.142554E-02	   -1.000000E+00	    1.600592E-03	    1.600000E-03	    8.010000E+02	    3.290378E-06	    8.311384E-05	    2.023299E+04	    1.404442E+05	    1.000000E+00	    8.888205E-05	    1.021818E+02	
   -7.734415E-03	    1.208525E-02	    4.523230E-02	   -1.000000E+00	    1.600879E-03	    1.600000E-03	    8.010000E+02	    4.881980E-06	    1.024775E-04	    1.681376E+04	    1.385088E+05	    1.000000E+00	    9.750759E-05	    1.029396E+02	
   -6.534202E-03	    1.296088E-02	    4.836664E-02	   -1.000000E+00	    1.601188E-03	    1.600000E-03	    8.010000E+02	    6.598223E-06	    1.203665E-04	    1.461205E+04	    1.370042E+05	    1.000000E+00	    1.046030E-04	    1.036590E+02	
   -5.323618E-03	    1.364078E-02	    5.080252E-02	   -1.000000E+00	    1.601482E-03	    1.600000E-03	    8.010000E+02	    8.231643E-06	    1.355232E-04	    1.318741E+04	    1.358557E+05	    1.000000E+00	    1.101152E-04	    1.042543E+02	
   -4.152407E-03	    1.413866E-02	    5.258732E-02	   -1.000000E+00	    1.601731E-03	    1.600000E-03	    8.010000E+02	    9.617133E-06	    1.473453E-04	    1.227222E+04	    1.350156E+05	    1.000000E+00	    1.141534E-04	    1.047052E+02	
   -3.056062E-03	    1.448033E-02	    5.381232E-02	   -1.000000E+00	    1.601920E-03	    1.600000E-03	    8.010000E+02	    1.066921E-05	    1.558185E-04	    1.169821E+04	    1.344356E+05	    1.000000E+00	    1.169253E-04	    1.050197E+02	
   -2.055597E-03	    1.469622E-02	    5.458594E-02	   -1.000000E+00	    1.602048E-03	    1.600000E-03	    8.010000E+02	    1.137896E-05	    1.613229E-04	    1.135602E+04	    1.340645E+05	    1.000000E+00	    1.186771E-04	    1.052184E+02	
   -1.159962E-03	    1.481610E-02	    5.501450E-02	   -1.000000E+00	    1.602122E-03	    1.600000E-03	    8.010000E+02	    1.178830E-05	    1.644249E-04	    1.117246E+04	    1.338527E+05	    1.000000E+00	    1.196500E-04	    1.053252E+02	
   -3.693914E-04	    1.486607E-02	    5.519118E-02	   -1.000000E+00	    1.602153E-03	    1.600000E-03	    8.010000E+02	    1.196139E-05	    1.657160E-04	    1.109725E+04	    1.337549E+05	    1.000000E+00	    1.200556E-04	    1.053620E+02	
    3.693914E-04	    1.486607E-02	    5.519118E-02	   -1.000000E+00	    1.602153E-03	    1.600000E-03	    8.010000E+02	    1.196139E-05	    1.657160E-04	    1.109725E+04	    1.337549E+05	    1.000000E+00	    1.200556E-04	    1.053620E+02	
    1.159962E-03	    1.481610E-02	    5.501450E-02	   -1.000000E+00	    1.602122E-03	    1.600000E-03	    8.010000E+02	    1.178830E-05	    1.644249E-04	    1.117246E+04	    1.338527E+05	    1.000000E+00	    1.196500E-04	    1.053252E+02	
    2.055597E-03	    1.469622E-02	    5.458594E-02	   -1.000000E+00	    1.602048E-03	    1.600000E-03	    8.010000E+02	    1.137896E-05	    1.613229E-04	    1.135602E+04	    1.340645E+05	    1.000000E+00	    1.186771E-04	    1.052184E+02	
    3.056062E-03	    1.448033E-02	    5.381232E-02	   -1.000000E+00	    1.601920E-03	    1.600000E-03	    8.010000E+02	    1.066921E-05	    1.558185E-04	    1.169821E+04	    1.344356E+05	    1.000000E+00	    1.169253E-04	    1.050197E+02	
    4.152407E-03	    1.413866E-02	    5.258732E-02	   -1.000000E+00	    1.601731E-03	    1.600000E-03	    8.010000E+02	    9.617133E-06	    1.473453E-04	    1.227222E+04	    1.350156E+05	    1.000000E+00	    1.141534E-04	    1.047052E+02	
    5.323618E-03	    1.364078E-02	    5.080252E-02	   -1.000000E+00	    1.601482E-03	    1.600000E-03	    8.010000E+02	    8.231643E-06	    1.355232E-04	    1.318741E+04	    1.358557E+05	    1.000000E+00	    1.101152E-04	    1.042543E+02	
    6.534202E-03	    1.296088E-02	    4.836664E-02	   -1.000000E+00	    1.601188E-03	    1.600000E-03	    8.010000E+02	    6.598223E-06	    1.203665E-04	    1.461205E+04	    1.370042E+05	    1.000000E+00	    1.046030E-04	    1.036590E+02	
    7.734415E-03	    1.208525E-02	    4.523230E-02	   -1.000000E+00	    1.600879E-03	    1.600000E-03	    8.010000E+02	    4.881980E-06	    1.024775E-04	    1.681376E+04	    1.385088E+05	    1.000000E+00	    9.750759E-05	    1.029396E+02	
    8.864871E-03	    1.102010E-02	    4.142554E-02	   -1.000000E+00	    1.600592E-03	    1.600000E-03	    8.010000E+02	    3.290378E-06	    8.311384E-05	    2.023299E+04	    1.404442E+05	    1.000000E+00	    8.888205E-05	    1.021818E+02	
    9.865999E-03	    9.796762E-03	    3.706651E-02	   -1.000000E+00	    1.600360E-03	    1.600000E-03	    8.010000E+02	    2.001223E-06	    6.400881E-05	    2.561986E+04	    1.429771E+05	    1.000000E+00	    7.898306E-05	    1.016086E+02	
    1.069030E-02	    8.470821E-03	    3.230902E-02	   -1.000000E+00	    1.600196E-03	    1.600000E-03	    8.010000E+02	    1.088417E-06	    4.660219E-05	    3.429602E+04	    1.459356E+05	    1.000000E+00	    6.826297E-05	    1.011704E+02	
    1.131296E-02	    7.113823E-03	    2.730022E-02	   -1.000000E+00	    1.600094E-03	    1.600000E-03	    8.010000E+02	    5.207111E-07	    3.163925E-05	    4.867005E+04	    1.482828E+05	    1.000000E+00	    5.730158E-05	    9.996379E+01	
    1.173627E-02	    5.799842E-03	    2.249212E-02	   -1.000000E+00	    1.600040E-03	    1.600000E-03	    8.010000E+02	    2.239199E-07	    2.048638E-05	    7.328330E+04	    1.519095E+05	    1.000000E+00	    4.669711E-05	    9.978834E+01	
    1.198594E-02	    4.591957E-03	    1.796260E-02	   -1.000000E+00	    1.600015E-03	    1.600000E-03	    8.010000E+02	    8.532955E-08	    1.246386E-05	    1.169999E+05	    1.549720E+05	    1.000000E+00	    3.695706E-05	    9.924238E+01	
    1.210183E-02	    3.533367E-03	    1.397857E-02	   -1.000000E+00	    1.600005E-03	    1.600000E-03	    8.010000E+02	    2.934337E-08	    7.244097E-06	    1.977456E+05	    1.588688E+05	    1.000000E+00	    2.842731E-05	    9.951305E+01	
    1.212713E-02	    2.644971E-03	    1.059344E-02	   -1.000000E+00	    1.600002E-03	    1.600000E-03	    8.010000E+02	    9.112290E-09	    4.016918E-06	    3.531002E+05	    1.631258E+05	    1.000000E+00	    2.127355E-05	    1.002768E+02	
    1.210005E-02	    1.928180E-03	    7.825620E-03	   -1.000000E+00	    1.600000E-03	    1.600000E-03	    8.010000E+02	    2.567820E-09	    2.130996E-06	    6.647382E+05	    1.677512E+05	    1.000000E+00	    1.550470E-05	    1.015734E+02	
    1.204947E-02	    1.370366E-03	    5.645835E-03	   -1.000000E+00	    1.600000E-03	    1.600000E-03	    8.010000E+02	    6.605551E-10	    1.085700E-06	    1.316538E+06	    1.730585E+05	    1.000000E+00	    1.101722E-05	    1.035943E+02	
    1.199418E-02	    9.506311E-04	    3.985336E-03	   -1.000000E+00	    1.600000E-03	    1.600000E-03	    8.010000E+02	    1.559559E-10	    5.328099E-07	    2.736548E+06	    1.793402E+05	    1.000000E+00	    7.641652E-06	    1.064813E+02	
    1.194442E-02	    6.446550E-04	    2.751878E-03	   -1.000000E+00	    1.600000E-03	    1.600000E-03	    8.010000E+02	    3.383395E-11	    2.514089E-07	    5.951965E+06	    1.860523E+05	    1.000000E+00	    5.181536E-06	    1.098498E+02	
    1.190434E-02	    4.281908E-04	    1.857218E-03	   -1.000000E+00	    1.600000E-03	    1.600000E-03	    8.010000E+02	    6.752210E-12	    1.137407E-07	    1.349282E+07	    1.921600E+05	    1.000000E+00	    3.441418E-06	    1.130428E+02	
    1.187441E-02	    2.792886E-04	    1.218607E-03	   -1.000000E+00	    1.600000E-03	    1.600000E-03	    8.010000E+02	    1.231576E-12	    4.876882E-08	    3.171858E+07	    1.945161E+05	    1.000000E+00	    2.244563E-06	    1.141741E+02	
    1.185324E-02	    1.794591E-04	    7.636189E-04	   -1.000000E+00	    1.600000E-03	    1.600000E-03	    8.010000E+02	    1.992476E-13	    1.911078E-08	    7.682770E+07	    1.850300E+05	    1.000000E+00	    1.442214E-06	    1.084808E+02	
    1.183890E-02	    1.140332E-04	    4.328751E-04	   -1.000000E+00	    1.600000E-03	    1.600000E-03	    8.010000E+02	    2.582237E-14	    6.134351E-09	    1.902852E+08	    1.472850E+05	    1.000000E+00	    9.164024E-07	    8.629214E+01	
    1.182948E-02	    7.196625E-05	    1.777849E-04	   -1.000000E+00	    1.600000E-03	    1.600000E-03	    8.010000E+02	    4.067251E-15	    2.425998E-09	    4.777734E+08	    6.244544E+04	    1.000000E+00	    5.783327E-07	    5.596048E+01	
    1.182611E-02	    5.710773E-05	    0.000000E+00	    0.000000E+00	    1.000000E-03	    1.000000E-03	    1.000000E+03	    0.000000E+00	    0.000000E+00	    6.886120E+05	    0.000000E+00	    1.000000E+00	    0.000000E+00	    0.000000E+00	
   -1.182507E-02	    5.733364E-05	    0.000000E+00	    0.000000E+00	    1.000000E-03	    1.000000E-03	    1.000000E+03	    0.000000E+00	    0.000000E+00	    6.886120E+05	    0.000000E+00	    1.000000E+00	    0.000000E+00	    0.000000E+00	
   -1.182817E-02	    7.224929E-05	    4.348250E-04	   -1.000000E+00	    1.600000E-03	    1.600000E-03	    8.010000E+02	    3.387645E-11	    2.912326E-08	    6.886120E+05	    3.733467E+04	    1.000000E+00	    1.916651E-06	    6.834841E-01	
   -1.183682E-02	    1.144743E-04	    1.058718E-03	   -1.000000E+00	    1.600000E-03	    1.600000E-03	    8.010000E+02	    2.764664E-14	    9.150675E-10	    2.651205E+07	    8.720865E+04	    4.188498E-04	    3.036948E-06	    2.411026E-09	
   -1.184998E-02	    1.801352E-04	    1.867511E-03	   -1.000000E+00	    1.600000E-03	    1.600000E-03	    8.010000E+02	    2.414782E-13	    3.228829E-09	    1.071025E+07	    1.094652E+05	    2.486892E-03	    4.779244E-06	    2.643345E-08	
   -1.186931E-02	    2.802978E-04	    2.979837E-03	   -1.000000E+00	    1.600000E-03	    1.600000E-03	    8.010000E+02	    1.733315E-12	    9.954466E-09	    4.600160E+06	    1.150220E+05	    9.218887E-01	    7.437517E-06	    1.993694E-07	
   -1.189652E-02	    4.296397E-04	    4.540461E-03	   -1.000000E+00	    1.600000E-03	    1.600000E-03	    8.010000E+02	    1.270260E-11	    3.115000E-08	    1.964255E+06	    1.135683E+05	    1.000000E+00	    1.140207E-05	    1.442613E-06	
   -1.193260E-02	    6.466214E-04	    6.725555E-03	   -1.000000E+00	    1.600000E-03	    1.600000E-03	    8.010000E+02	    9.029928E-11	    9.771582E-08	    8.667884E+05	    1.098781E+05	    1.000000E+00	    1.716456E-05	    9.921911E-06	
   -1.197668E-02	    9.530832E-04	    9.735641E-03	   -1.000000E+00	    1.600000E-03	    1.600000E-03	    8.010000E+02	    6.045489E-10	    3.009374E-07	    3.987285E+05	    1.058031E+05	    1.000000E+00	    2.530810E-05	    6.396318E-05	
   -1.202415E-02	    1.373016E-03	    1.378316E-02	   -1.000000E+00	    1.600001E-03	    1.600000E-03	    8.010000E+02	    3.717829E-09	    8.909801E-07	    1.919601E+05	    1.019456E+05	    1.000000E+00	    3.647577E-05	    3.790164E-04	
   -1.206431E-02	    1.930258E-03	    1.908820E-02	   -1.000000E+00	    1.600004E-03	    1.600000E-03	    8.010000E+02	    2.070440E-08	    2.507608E-06	    9.701291E+04	    9.861897E+04	    1.000000E+00	    5.131097E-05	    2.041846E-03	
   -1.207804E-02	    2.644917E-03	    2.581049E-02	   -1.000000E+00	    1.600018E-03	    1.600000E-03	    8.010000E+02	    1.023357E-07	    6.591419E-06	    5.159225E+04	    9.563364E+04	    1.000000E+00	    7.036365E-05	    9.786731E-03	
   -1.203647E-02	    3.528498E-03	    3.401000E-02	   -1.000000E+00	    1.600080E-03	    1.600000E-03	    8.010000E+02	    4.427281E-07	    1.599188E-05	    2.893310E+04	    9.276605E+04	    1.000000E+00	    9.396134E-05	    4.107014E-02	
   -1.190195E-02	    4.578221E-03	    4.362732E-02	   -1.000000E+00	    1.600300E-03	    1.600000E-03	    8.010000E+02	    1.664129E-06	    3.561772E-05	    1.714398E+04	    8.990927E+04	    1.000000E+00	    1.220562E-04	    1.496206E-01	
   -1.163259E-02	    5.771854E-03	    5.451698E-02	   -1.000000E+00	    1.600985E-03	    1.600000E-03	    8.010000E+02	    5.471085E-06	    7.343764E-05	    1.075172E+04	    8.711588E+04	    1.000000E+00	    1.540822E-04	    4.766184E-01	
   -1.119063E-02	    7.065354E-03	    6.600785E-02	   -1.000000E+00	    1.602737E-03	    1.600000E-03	    8.010000E+02	    1.520655E-05	    1.356572E-04	    7.145699E+03	    8.324539E+04	    1.000000E+00	    1.888839E-04	    1.265875E+00	
   -1.055293E-02	    8.395788E-03	    7.789701E-02	   -1.000000E+00	    1.606679E-03	    1.600000E-03	    8.010000E+02	    3.710348E-05	    2.332398E-04	    5.035243E+03	    7.920798E+04	    1.000000E+00	    2.247843E-04	    2.938892E+00	
   -9.719672E-03	    9.690493E-03	    8.906692E-02	   -1.000000E+00	    1.613668E-03	    1.600000E-03	    8.010000E+02	    7.593183E-05	    3.565390E-04	    3.761107E+03	    7.434087E+04	    1.000000E+00	    2.598236E-04	    5.644839E+00	
   -8.717249E-03	    1.088041E-02	    9.916491E-02	   -1.000000E+00	    1.624348E-03	    1.600000E-03	    8.010000E+02	    1.352684E-04	    5.018101E-04	    2.971499E+03	    6.968910E+04	    1.000000E+00	    2.921170E-04	    9.426732E+00	
   -7.593395E-03	    1.191288E-02	    1.078451E-01	   -1.000000E+00	    1.638206E-03	    1.600000E-03	    8.010000E+02	    2.122579E-04	    6.551809E-04	    2.472464E+03	    6.571186E+04	    1.000000E+00	    3.202078E-04	    1.394786E+01	
   -6.406602E-03	    1.275917E-02	    1.148705E-01	   -1.000000E+00	    1.653487E-03	    1.600000E-03	    8.010000E+02	    2.971521E-04	    7.987321E-04	    2.153054E+03	    6.252278E+04	    1.000000E+00	    3.432820E-04	    1.857877E+01	