Title="Fields"
Variables="X""Y""Velocity""Phi""Effective Viscosity""Dynamic Viscosity""Density""Eddy Viscosity""K""Omega""S""F1SST""distance""GEN"
Zone I=52 J=52 F=POINT
   -1.135944E-02	    5.255753E-05	    0.000000E+00	    0.000000E+00	    1.000000E-03	    1.000000E-03	    1.000000E+03	    0.000000E+00	    0.000000E+00	    4.499519E+08	    0.000000E+00	    1.000000E+00	    0.000000E+00	    0.000000E+00	
   -1.136463E-02	    6.624354E-05	    0.000000E+00	    0.000000E+00	    1.000000E-03	    1.000000E-03	    1.000000E+03	    0.000000E+00	    0.000000E+00	    4.499519E+08	    0.000000E+00	    1.000000E+00	    0.000000E+00	    0.000000E+00	
   -1.137921E-02	    1.050164E-04	    0.000000E+00	    0.000000E+00	    1.000000E-03	    1.000000E-03	    1.000000E+03	    0.000000E+00	    0.000000E+00	    1.790405E+08	    0.000000E+00	    1.000000E+00	    0.000000E+00	    0.000000E+00	
   -1.140163E-02	    1.653941E-04	    0.000000E+00	    0.000000E+00	    1.000000E-03	    1.000000E-03	    1.000000E+03	    0.000000E+00	    0.000000E+00	    7.218467E+07	    0.000000E+00	    1.000000E+00	    0.000000E+00	    0.000000E+00	
   -1.143519E-02	    2.576972E-04	    0.000000E+00	    0.000000E+00	    1.000000E-03	    1.000000E-03	    1.000000E+03	    0.000000E+00	    0.000000E+00	    2.973687E+07	    0.000000E+00	    1.000000E+00	    0.000000E+00	    0.000000E+00	
   -1.148383E-02	    3.957707E-04	    0.000000E+00	    0.000000E+00	    1.000000E-03	    1.000000E-03	    1.000000E+03	    0.000000E+00	    0.000000E+00	    1.260875E+07	    0.000000E+00	    1.000000E+00	    0.000000E+00	    0.000000E+00	
   -1.155151E-02	    5.973461E-04	    0.000000E+00	    0.000000E+00	    1.000000E-03	    1.000000E-03	    1.000000E+03	    0.000000E+00	    0.000000E+00	    5.535695E+06	    0.000000E+00	    1.000000E+00	    0.000000E+00	    0.000000E+00	
   -1.164107E-02	    8.840147E-04	    0.000000E+00	    0.000000E+00	    1.000000E-03	    1.000000E-03	    1.000000E+03	    0.000000E+00	    0.000000E+00	    2.528119E+06	    0.000000E+00	    1.000000E+00	    0.000000E+00	    0.000000E+00	
   -1.175233E-02	    1.280612E-03	    0.000000E+00	    0.000000E+00	    1.000000E-03	    1.000000E-03	    1.000000E+03	    0.000000E+00	    0.000000E+00	    1.205062E+06	    0.000000E+00	    1.000000E+00	    0.000000E+00	    0.000000E+00	
   -1.187942E-02	    1.813762E-03	    0.000000E+00	    0.000000E+00	    1.000000E-03	    1.000000E-03	    1.000000E+03	    0.000000E+00	    0.000000E+00	    6.009732E+05	    0.000000E+00	    1.000000E+00	    0.000000E+00	    0.000000E+00	
   -1.200765E-02	    2.509261E-03	    0.000000E+00	    0.000000E+00	    1.000000E-03	    1.000000E-03	    1.000000E+03	    0.000000E+00	    0.000000E+00	    3.141582E+05	    0.000000E+00	    1.000000E+00	    0.000000E+00	    0.000000E+00	
   -1.211076E-02	    3.387927E-03	    0.000000E+00	    0.000000E+00	    1.000000E-03	    1.000000E-03	    1.000000E+03	    0.000000E+00	    0.000000E+00	    1.724475E+05	    0.000000E+00	    1.000000E+00	    0.000000E+00	    0.000000E+00	
   -1.214962E-02	    4.459779E-03	    0.000000E+00	    0.000000E+00	    1.000000E-03	    1.000000E-03	    1.000000E+03	    0.000000E+00	    0.000000E+00	    9.959775E+04	    0.000000E+00	    1.000000E+00	    0.000000E+00	    0.000000E+00	
   -1.207438E-02	    5.717103E-03	    0.000000E+00	    0.000000E+00	    1.000000E-03	    1.000000E-03	    1.000000E+03	    0.000000E+00	    0.000000E+00	    6.066612E+04	    0.000000E+00	    1.000000E+00	    0.000000E+00	    0.000000E+00	
   -1.183129E-02	    7.128262E-03	    0.000000E+00	    0.000000E+00	    1.000000E-03	    1.000000E-03	    1.000000E+03	    0.000000E+00	    0.000000E+00	    3.906857E+04	    0.000000E+00	    1.000000E+00	    0.000000E+00	    0.000000E+00	
   -1.137428E-02	    8.635444E-03	    0.000000E+00	    0.000000E+00	    1.000000E-03	    1.000000E-03	    1.000000E+03	    0.000000E+00	    0.000000E+00	    2.665630E+04	    0.000000E+00	    1.000000E+00	    0.000000E+00	    0.000000E+00	
   -1.067847E-02	    1.015958E-02	    0.000000E+00	    0.000000E+00	    1.000000E-03	    1.000000E-03	    1.000000E+03	    0.000000E+00	    0.000000E+00	    1.928736E+04	    0.000000E+00	    1.000000E+00	    0.000000E+00	    0.000000E+00	
   -9.750208E-03	    1.161320E-02	    0.000000E+00	    0.000000E+00	    1.000000E-03	    1.000000E-03	    1.000000E+03	    0.000000E+00	    0.000000E+00	    1.478569E+04	    0.000000E+00	    1.000000E+00	    0.000000E+00	    0.000000E+00	
   -8.628456E-03	    1.291773E-02	    0.000000E+00	    0.000000E+00	    1.000000E-03	    1.000000E-03	    1.000000E+03	    0.000000E+00	    0.000000E+00	    1.197078E+04	    0.000000E+00	    1.000000E+00	    0.000000E+00	    0.000000E+00	
   -7.376188E-03	    1.401841E-02	    0.000000E+00	    0.000000E+00	    1.000000E-03	    1.000000E-03	    1.000000E+03	    0.000000E+00	    0.000000E+00	    1.018203E+04	    0.000000E+00	    1.000000E+00	    0.000000E+00	    0.000000E+00	
   -6.065615E-03	    1.489128E-02	    0.000000E+00	    0.000000E+00	    1.000000E-03	    1.000000E-03	    1.000000E+03	    0.000000E+00	    0.000000E+00	    9.037248E+03	    0.000000E+00	    1.000000E+00	    0.000000E+00	    0.000000E+00	
   -4.763671E-03	    1.554086E-02	    0.000000E+00	    0.000000E+00	    1.000000E-03	    1.000000E-03	    1.000000E+03	    0.000000E+00	    0.000000E+00	    8.308113E+03	    0.000000E+00	    1.000000E+00	    0.000000E+00	    0.000000E+00	
   -3.522546E-03	    1.599182E-02	    0.000000E+00	    0.000000E+00	    1.000000E-03	    1.000000E-03	    1.000000E+03	    0.000000E+00	    0.000000E+00	    7.853637E+03	    0.000000E+00	    1.000000E+00	    0.000000E+00	    0.000000E+00	
   -2.376482E-03	    1.627897E-02	    0.000000E+00	    0.000000E+00	    1.000000E-03	    1.000000E-03	    1.000000E+03	    0.000000E+00	    0.000000E+00	    7.583848E+03	    0.000000E+00	    1.000000E+00	    0.000000E+00	    0.000000E+00	
   -1.343275E-03	    1.643917E-02	    0.000000E+00	    0.000000E+00	    1.000000E-03	    1.000000E-03	    1.000000E+03	    0.000000E+00	    0.000000E+00	    7.439488E+03	    0.000000E+00	    1.000000E+00	    0.000000E+00	    0.000000E+00	
   -4.280657E-04	    1.650611E-02	    0.000000E+00	    0.000000E+00	    1.000000E-03	    1.000000E-03	    1.000000E+03	    0.000000E+00	    0.000000E+00	    7.380414E+03	    0.000000E+00	    1.000000E+00	    0.000000E+00	    0.000000E+00	
    4.280657E-04	    1.650611E-02	    0.000000E+00	    0.000000E+00	    1.000000E-03	    1.000000E-03	    1.000000E+03	    0.000000E+00	    0.000000E+00	    7.380414E+03	    0.000000E+00	    1.000000E+00	    0.000000E+00	    0.000000E+00	
    1.343275E-03	    1.643917E-02	    0.000000E+00	    0.000000E+00	    1.000000E-03	    1.000000E-03	    1.000000E+03	    0.000000E+00	    0.000000E+00	    7.439488E+03	    0.000000E+00	    1.000000E+00	    0.000000E+00	    0.000000E+00	
    2.376482E-03	    1.627897E-02	    0.000000E+00	    0.000000E+00	    1.000000E-03	    1.000000E-03	    1.000000E+03	    0.000000E+00	    0.000000E+00	    7.583848E+03	    0.000000E+00	    1.000000E+00	    0.000000E+00	    0.000000E+00	
    3.522546E-03	    1.599182E-02	    0.000000E+00	    0.000000E+00	    1.000000E-03	    1.000000E-03	    1.000000E+03	    0.000000E+00	    0.000000E+00	    7.853637E+03	    0.000000E+00	    1.000000E+00	    0.000000E+00	    0.000000E+00	
    4.763671E-03	    1.554086E-02	    0.000000E+00	    0.000000E+00	    1.000000E-03	    1.000000E-03	    1.000000E+03	    0.000000E+00	    0.000000E+00	    8.308113E+03	    0.000000E+00	    1.000000E+00	    0.000000E+00	    0.000000E+00	
    6.065615E-03	    1.489128E-02	    0.000000E+00	    0.000000E+00	    1.000000E-03	    1.000000E-03	    1.000000E+03	    0.000000E+00	    0.000000E+00	    9.037248E+03	    0.000000E+00	    1.000000E+00	    0.000000E+00	    0.000000E+00	
    7.376188E-03	    1.401841E-02	    0.000000E+00	    0.000000E+00	    1.000000E-03	    1.000000E-03	    1.000000E+03	    0.000000E+00	    0.000000E+00	    1.018203E+04	    0.000000E+00	    1.000000E+00	    0.000000E+00	    0.000000E+00	
    8.628456E-03	    1.291773E-02	    0.000000E+00	    0.000000E+00	    1.000000E-03	    1.000000E-03	    1.000000E+03	    0.000000E+00	    0.000000E+00	    1.197078E+04	    0.000000E+00	    1.000000E+00	    0.000000E+00	    0.000000E+00	
    9.750208E-03	    1.161320E-02	    0.000000E+00	    0.000000E+00	    1.000000E-03	    1.000000E-03	    1.000000E+03	    0.000000E+00	    0.000000E+00	    1.478569E+04	    0.000000E+00	    1.000000E+00	    0.000000E+00	    0.000000E+00	
    1.067847E-02	    1.015958E-02	    0.000000E+00	    0.000000E+00	    1.000000E-03	    1.000000E-03	    1.000000E+03	    0.000000E+00	    0.000000E+00	    1.928736E+04	    0.000000E+00	    1.000000E+00	    0.000000E+00	    0.000000E+00	
    1.137428E-02	    8.635444E-03	    0.000000E+00	    0.000000E+00	    1.000000E-03	    1.000000E-03	    1.000000E+03	    0.000000E+00	    0.000000E+00	    2.665630E+04	    0.000000E+00	    1.000000E+00	    0.000000E+00	    0.000000E+00	
    1.183129E-02	    7.128262E-03	    0.000000E+00	    0.000000E+00	    1.000000E-03	    1.000000E-03	    1.000000E+03	    0.000000E+00	    0.000000E+00	    3.906857E+04	    0.000000E+00	    1.000000E+00	    0.000000E+00	    0.000000E+00	
    1.207438E-02	    5.717103E-03	    0.000000E+00	    0.000000E+00	    1.000000E-03	    1.000000E-03	    1.000000E+03	    0.000000E+00	    0.000000E+00	    6.066612E+04	    0.000000E+00	    1.000000E+00	    0.000000E+00	    0.000000E+00	
    1.214962E-02	    4.459779E-03	    0.000000E+00	    0.000000E+00	    1.000000E-03	    1.000000E-03	    1.000000E+03	    0.000000E+00	    0.000000E+00	    9.959775E+04	    0.000000E+00	    1.000000E+00	    0.000000E+00	    0.000000E+00	
    1.211076E-02	    3.387927E-03	    0.000000E+00	    0.000000E+00	    1.000000E-03	    1.000000E-03	    1.000000E+03	    0.000000E+00	    0.000000E+00	    1.724475E+05	    0.000000E+00	    1.000000E+00	    0.000000E+00	    0.000000E+00	
    1.200765E-02	    2.509261E-03	    0.000000E+00	    0.000000E+00	    1.000000E-03	    1.000000E-03	    1.000000E+03	    0.000000E+00	    0.000000E+00	    3.141582E+05	    0.000000E+00	    1.000000E+00	    0.000000E+00	    0.000000E+00	
    1.187942E-02	    1.813762E-03	    0.000000E+00	    0.000000E+00	    1.000000E-03	    1.000000E-03	    1.000000E+03	    0.000000E+00	    0.000000E+00	    6.009732E+05	    0.000000E+00	    1.000000E+00	    0.000000E+00	    0.000000E+00	
    1.175233E-02	    1.280612E-03	    0.000000E+00	    0.000000E+00	    1.000000E-03	    1.000000E-03	    1.000000E+03	    0.000000E+00	    0.000000E+00	    1.205062E+06	    0.000000E+00	    1.000000E+00	    0.000000E+00	    0.000000E+00	
    1.164107E-02	    8.840147E-04	    0.000000E+00	    0.000000E+00	    1.000000E-03	    1.000000E-03	    1.000000E+03	    0.000000E+00	    0.000000E+00	    2.528119E+06	    0.000000E+00	    1.000000E+00	    0.000000E+00	    0.000000E+00	
    1.155151E-02	    5.973461E-04	    0.000000E+00	    0.000000E+00	    1.000000E-03	    1.000000E-03	    1.000000E+03	    0.000000E+00	    0.000000E+00	    5.535695E+06	    0.000000E+00	    1.000000E+00	    0.000000E+00	    0.000000E+00	
    1.148383E-02	    3.957707E-04	    0.000000E+00	    0.000000E+00	    1.000000E-03	    1.000000E-03	    1.000000E+03	    0.000000E+00	    0.000000E+00	    1.260875E+07	    0.000000E+00	    1.000000E+00	    0.000000E+00	    0.000000E+00	
    1.143519E-02	    2.576972E-04	    0.000000E+00	    0.000000E+00	    1.000000E-03	    1.000000E-03	    1.000000E+03	    0.000000E+00	    0.000000E+00	    2.973687E+07	    0.000000E+00	    1.000000E+00	    0.000000E+00	    0.000000E+00	
    1.140163E-02	    1.653941E-04	    0.000000E+00	    0.000000E+00	    1.000000E-03	    1.000000E-03	    1.000000E+03	    0.000000E+00	    0.000000E+00	    7.218467E+07	    0.000000E+00	    1.000000E+00	    0.000000E+00	    0.000000E+00	
    1.137921E-02	    1.050164E-04	    0.000000E+00	    0.000000E+00	    1.000000E-03	    1.000000E-03	    1.000000E+03	    0.000000E+00	    0.000000E+00	    1.790405E+08	    0.000000E+00	    1.000000E+00	    0.000000E+00	    0.000000E+00	
    1.136463E-02	    6.624354E-05	    0.000000E+00	    0.000000E+00	    1.000000E-03	    1.000000E-03	    1.000000E+03	    0.000000E+00	    0.000000E+00	    4.499519E+08	    0.000000E+00	    1.000000E+00	    0.000000E+00	    0.000000E+00	
    1.135944E-02	    5.255753E-05	    0.000000E+00	    0.000000E+00	    1.000000E-03	    1.000000E-03	    1.000000E+03	    0.000000E+00	    0.000000E+00	    0.000000E+00	    0.000000E+00	    1.000000E+00	    0.000000E+00	    0.000000E+00	
   -1.135900E-02	    5.272344E-05	    0.000000E+00	    0.000000E+00	    1.000000E-03	    1.000000E-03	    1.000000E+03	    0.000000E+00	    0.000000E+00	    0.000000E+00	    0.000000E+00	    1.000000E+00	    0.000000E+00	    0.000000E+00	
   -1.136407E-02	    6.645198E-05	    2.809348E-04	   -1.000000E+00	    1.600000E-03	    1.600000E-03	    8.010000E+02	    1.050989E-14	    5.903799E-09	    4.499519E+08	    1.468716E+05	    1.000000E+00	    5.959443E-07	    1.299142E+02	
   -1.137833E-02	    1.053438E-04	    6.832345E-04	   -1.000000E+00	    1.600000E-03	    1.600000E-03	    8.010000E+02	    6.839505E-14	    1.528775E-08	    1.790405E+08	    3.452390E+05	    1.000000E+00	    9.447417E-07	    2.023076E+02	
   -1.140023E-02	    1.659023E-04	    1.205369E-03	   -1.000000E+00	    1.600000E-03	    1.600000E-03	    8.010000E+02	    5.288877E-13	    4.766240E-08	    7.218467E+07	    4.331610E+05	    1.000000E+00	    1.487874E-06	    2.540810E+02	
   -1.143301E-02	    2.584714E-04	    1.928327E-03	   -1.000000E+00	    1.600000E-03	    1.600000E-03	    8.010000E+02	    3.295953E-12	    1.223612E-07	    2.973687E+07	    4.566263E+05	    1.000000E+00	    2.318148E-06	    2.682979E+02	
   -1.148046E-02	    3.969190E-04	    2.953121E-03	   -1.000000E+00	    1.600000E-03	    1.600000E-03	    8.010000E+02	    1.834469E-11	    2.887685E-07	    1.260875E+07	    4.539991E+05	    1.000000E+00	    3.560023E-06	    2.676377E+02	
   -1.154640E-02	    5.989897E-04	    4.400962E-03	   -1.000000E+00	    1.600000E-03	    1.600000E-03	    8.010000E+02	    9.374198E-11	    6.478489E-07	    5.535695E+06	    4.425536E+05	    1.000000E+00	    5.372825E-06	    2.622865E+02	
   -1.163345E-02	    8.862587E-04	    6.408822E-03	   -1.000000E+00	    1.600000E-03	    1.600000E-03	    8.010000E+02	    4.420336E-10	    1.395148E-06	    2.528119E+06	    4.284235E+05	    1.000000E+00	    7.950418E-06	    2.559795E+02	
   -1.174118E-02	    1.283485E-03	    9.133928E-03	   -1.000000E+00	    1.600000E-03	    1.600000E-03	    8.010000E+02	    1.926491E-09	    2.898303E-06	    1.205062E+06	    4.145621E+05	    1.000000E+00	    1.151554E-05	    2.506444E+02	
   -1.186346E-02	    1.817115E-03	    1.274733E-02	   -1.000000E+00	    1.600001E-03	    1.600000E-03	    8.010000E+02	    7.764442E-09	    5.825495E-06	    6.009732E+05	    4.023570E+05	    1.000000E+00	    1.630652E-05	    2.473204E+02	
   -1.198535E-02	    2.512605E-03	    1.739144E-02	   -1.000000E+00	    1.600005E-03	    1.600000E-03	    8.010000E+02	    2.881601E-08	    1.130186E-05	    3.141582E+05	    3.910838E+05	    1.000000E+00	    2.255355E-05	    2.456842E+02	
   -1.208040E-02	    3.390236E-03	    2.316431E-02	   -1.000000E+00	    1.600018E-03	    1.600000E-03	    8.010000E+02	    9.804168E-08	    2.110742E-05	    1.724475E+05	    3.802957E+05	    1.000000E+00	    3.044121E-05	    2.454764E+02	
   -1.210957E-02	    4.459282E-03	    3.011626E-02	   -1.000000E+00	    1.600055E-03	    1.600000E-03	    8.010000E+02	    3.049775E-07	    3.792143E-05	    9.959775E+04	    3.705359E+05	    1.000000E+00	    4.005614E-05	    2.470597E+02	
   -1.202340E-02	    5.711158E-03	    3.812672E-02	   -1.000000E+00	    1.600155E-03	    1.600000E-03	    8.010000E+02	    8.591504E-07	    6.507031E-05	    6.066612E+04	    3.606898E+05	    1.000000E+00	    5.132513E-05	    2.495500E+02	
   -1.176907E-02	    7.113437E-03	    4.697449E-02	   -1.000000E+00	    1.600391E-03	    1.600000E-03	    8.010000E+02	    2.173276E-06	    1.060010E-04	    3.906857E+04	    3.509628E+05	    1.000000E+00	    6.396045E-05	    2.526915E+02	
   -1.130190E-02	    8.607912E-03	    5.626132E-02	   -1.000000E+00	    1.600882E-03	    1.600000E-03	    8.010000E+02	    4.899523E-06	    1.630501E-04	    2.665630E+04	    3.408202E+05	    1.000000E+00	    7.744104E-05	    2.560500E+02	
   -1.059861E-02	    1.011582E-02	    6.570821E-02	   -1.000000E+00	    1.601777E-03	    1.600000E-03	    8.010000E+02	    9.873316E-06	    2.377406E-04	    1.928736E+04	    3.322549E+05	    1.000000E+00	    9.105806E-05	    2.611748E+02	
   -9.666949E-03	    1.155083E-02	    7.457787E-02	   -1.000000E+00	    1.603152E-03	    1.600000E-03	    8.010000E+02	    1.751325E-05	    3.232778E-04	    1.478569E+04	    3.227732E+05	    1.000000E+00	    1.040309E-04	    2.648315E+02	
   -8.546578E-03	    1.283604E-02	    8.225741E-02	   -1.000000E+00	    1.604935E-03	    1.600000E-03	    8.010000E+02	    2.741558E-05	    4.097202E-04	    1.197078E+04	    3.121572E+05	    1.000000E+00	    1.156614E-04	    2.660347E+02	
   -7.300290E-03	    1.391851E-02	    8.875767E-02	   -1.000000E+00	    1.607000E-03	    1.600000E-03	    8.010000E+02	    3.888973E-05	    4.943526E-04	    1.018203E+04	    3.035388E+05	    1.000000E+00	    1.254659E-04	    2.679598E+02	
   -5.999358E-03	    1.477568E-02	    9.393241E-02	   -1.000000E+00	    1.609086E-03	    1.600000E-03	    8.010000E+02	    5.047942E-05	    5.695318E-04	    9.037248E+03	    2.968944E+05	    1.000000E+00	    1.332354E-04	    2.699180E+02	
   -4.709392E-03	    1.541288E-02	    9.779536E-02	   -1.000000E+00	    1.610936E-03	    1.600000E-03	    8.010000E+02	    6.075369E-05	    6.301480E-04	    8.308113E+03	    2.920557E+05	    1.000000E+00	    1.390143E-04	    2.715298E+02	
   -3.481257E-03	    1.585488E-02	    1.004801E-01	   -1.000000E+00	    1.612382E-03	    1.600000E-03	    8.010000E+02	    6.879080E-05	    6.744794E-04	    7.853637E+03	    2.887369E+05	    1.000000E+00	    1.430245E-04	    2.726719E+02	
   -2.348133E-03	    1.613618E-02	    1.021883E-01	   -1.000000E+00	    1.613376E-03	    1.600000E-03	    8.010000E+02	    7.431333E-05	    7.035967E-04	    7.583848E+03	    2.866297E+05	    1.000000E+00	    1.455774E-04	    2.733834E+02	
   -1.327095E-03	    1.629306E-02	    1.031388E-01	   -1.000000E+00	    1.613956E-03	    1.600000E-03	    8.010000E+02	    7.753255E-05	    7.201030E-04	    7.439488E+03	    2.854469E+05	    1.000000E+00	    1.470013E-04	    2.737623E+02	
   -4.228888E-04	    1.635861E-02	    1.035321E-01	   -1.000000E+00	    1.614202E-03	    1.600000E-03	    8.010000E+02	    7.890214E-05	    7.270044E-04	    7.380414E+03	    2.849345E+05	    1.000000E+00	    1.475963E-04	    2.738983E+02	
    4.228888E-04	    1.635861E-02	    1.035321E-01	   -1.000000E+00	    1.614202E-03	    1.600000E-03	    8.010000E+02	    7.890214E-05	    7.270044E-04	    7.380414E+03	    2.849345E+05	    1.000000E+00	    1.475963E-04	    2.738983E+02	
    1.327095E-03	    1.629306E-02	    1.031388E-01	   -1.000000E+00	    1.613956E-03	    1.600000E-03	    8.010000E+02	    7.753255E-05	    7.201030E-04	    7.439488E+03	    2.854469E+05	    1.000000E+00	    1.470013E-04	    2.737623E+02	
    2.348133E-03	    1.613618E-02	    1.021883E-01	   -1.000000E+00	    1.613376E-03	    1.600000E-03	    8.010000E+02	    7.431333E-05	    7.035967E-04	    7.583848E+03	    2.866297E+05	    1.000000E+00	    1.455774E-04	    2.733834E+02	
    3.481257E-03	    1.585488E-02	    1.004801E-01	   -1.000000E+00	    1.612382E-03	    1.600000E-03	    8.010000E+02	    6.879080E-05	    6.744794E-04	    7.853637E+03	    2.887369E+05	    1.000000E+00	    1.430245E-04	    2.726719E+02	
    4.709392E-03	    1.541288E-02	    9.779536E-02	   -1.000000E+00	    1.610936E-03	    1.600000E-03	    8.010000E+02	    6.075369E-05	    6.301480E-04	    8.308113E+03	    2.920557E+05	    1.000000E+00	    1.390143E-04	    2.715298E+02	
    5.999358E-03	    1.477568E-02	    9.393241E-02	   -1.000000E+00	    1.609086E-03	    1.600000E-03	    8.010000E+02	    5.047942E-05	    5.695318E-04	    9.037248E+03	    2.968944E+05	    1.000000E+00	    1.332354E-04	    2.699180E+02	
    7.300290E-03	    1.391851E-02	    8.875767E-02	   -1.000000E+00	    1.607000E-03	    1.600000E-03	    8.010000E+02	    3.888973E-05	    4.943526E-04	    1.018203E+04	    3.035388E+05	    1.000000E+00	    1.254659E-04	    2.679598E+02	
    8.546578E-03	    1.283604E-02	    8.225741E-02	   -1.000000E+00	    1.604935E-03	    1.600000E-03	    8.010000E+02	    2.741558E-05	    4.097202E-04	    1.197078E+04	    3.121572E+05	    1.000000E+00	    1.156614E-04	    2.660347E+02	
    9.666949E-03	    1.155083E-02	    7.457787E-02	   -1.000000E+00	    1.603152E-03	    1.600000E-03	    8.010000E+02	    1.751325E-05	    3.232778E-04	    1.478569E+04	    3.227732E+05	    1.000000E+00	    1.040309E-04	    2.648315E+02	
    1.059861E-02	    1.011582E-02	    6.570821E-02	   -1.000000E+00	    1.601777E-03	    1.600000E-03	    8.010000E+02	    9.873316E-06	    2.377406E-04	    1.928736E+04	    3.322549E+05	    1.000000E+00	    9.105806E-05	    2.611748E+02	
    1.130190E-02	    8.607912E-03	    5.626132E-02	   -1.000000E+00	    1.600882E-03	    1.600000E-03	    8.010000E+02	    4.899523E-06	    1.630501E-04	    2.665630E+04	    3.408202E+05	    1.000000E+00	    7.744104E-05	    2.560500E+02	
    1.176907E-02	    7.113437E-03	    4.697449E-02	   -1.000000E+00	    1.600391E-03	    1.600000E-03	    8.010000E+02	    2.173276E-06	    1.060010E-04	    3.906857E+04	    3.509628E+05	    1.000000E+00	    6.396045E-05	    2.526915E+02	
    1.202340E-02	    5.711158E-03	    3.812672E-02	   -1.000000E+00	    1.600155E-03	    1.600000E-03	    8.010000E+02	    8.591504E-07	    6.507031E-05	    6.066612E+04	    3.606898E+05	    1.000000E+00	    5.132513E-05	    2.495500E+02	
    1.210957E-02	    4.459282E-03	    3.011626E-02	   -1.000000E+00	    1.600055E-03	    1.600000E-03	    8.010000E+02	    3.049775E-07	    3.792143E-05	    9.959775E+04	    3.705359E+05	    1.000000E+00	    4.005614E-05	    2.470597E+02	
    1.208040E-02	    3.390236E-03	    2.316431E-02	   -1.000000E+00	    1.600018E-03	    1.600000E-03	    8.010000E+02	    9.804168E-08	    2.110742E-05	    1.724475E+05	    3.802957E+05	    1.000000E+00	    3.044121E-05	    2.454764E+02	
    1.198535E-02	    2.512605E-03	    1.739144E-02	   -1.000000E+00	    1.600005E-03	    1.600000E-03	    8.010000E+02	    2.881601E-08	    1.130186E-05	    3.141582E+05	    3.910838E+05	    1.000000E+00	    2.255355E-05	    2.456842E+02	
    1.186346E-02	    1.817115E-03	    1.274733E-02	   -1.000000E+00	    1.600001E-03	    1.600000E-03	    8.010000E+02	    7.764442E-09	    5.825495E-06	    6.009732E+05	    4.023570E+05	    1.000000E+00	    1.630652E-05	    2.473204E+02	
    1.174118E-02	    1.283485E-03	    9.133928E-03	   -1.000000E+00	    1.600000E-03	    1.600000E-03	    8.010000E+02	    1.926491E-09	    2.898303E-06	    1.205062E+06	    4.145621E+05	    1.000000E+00	    1.151554E-05	    2.506444E+02	
    1.163345E-02	    8.862587E-04	    6.408822E-03	   -1.000000E+00	    1.600000E-03	    1.600000E-03	    8.010000E+02	    4.420336E-10	    1.395148E-06	    2.528119E+06	    4.284235E+05	    1.000000E+00	    7.950418E-06	    2.559795E+02	
    1.154640E-02	    5.989897E-04	    4.400962E-03	   -1.000000E+00	    1.600000E-03	    1.600000E-03	    8.010000E+02	    9.374198E-11	    6.478489E-07	    5.535695E+06	    4.425536E+05	    1.000000E+00	    5.372825E-06	    2.622865E+02	
    1.148046E-02	    3.969190E-04	    2.953121E-03	   -1.000000E+00	    1.600000E-03	    1.600000E-03	    8.010000E+02	    1.834469E-11	    2.887685E-07	    1.260875E+07	    4.539991E+05	    1.000000E+00	    3.560023E-06	    2.676377E+02	
    1.143301E-02	    2.584714E-04	    1.928327E-03	   -1.000000E+00	    1.600000E-03	    1.600000E-03	    8.010000E+02	    3.295953E-12	    1.223612E-07	    2.973687E+07	    4.566263E+05	    1.000000E+00	    2.318148E-06	    2.682979E+02	
    1.140023E-02	    1.659023E-04	    1.205369E-03	   -1.000000E+00	    1.600000E-03	    1.600000E-03	    8.010000E+02	    5.288877E-13	    4.766240E-08	    7.218467E+07	    4.331610E+05	    1.000000E+00	    1.487874E-06	    2.540810E+02	
    1.137833E-02	    1.053438E-04	    6.832345E-04	   -1.000000E+00	    1.600000E-03	    1.600000E-03	    8.010000E+02	    6.839505E-14	    1.528775E-08	    1.790405E+08	    3.452390E+05	    1.000000E+00	    9.447417E-07	    2.023076E+02	
    1.136407E-02	    6.645198E-05	    2.809348E-04	   -1.000000E+00	    1.600000E-03	    1.600000E-03	    8.010000E+02	    1.050989E-14	    5.903799E-09	    4.499519E+08	    1.468716E+05	    1.000000E+00	    5.959443E-07	    1.299142E+02	
    1.135900E-02	    5.272344E-05	    0.000000E+00	    0.000000E+00	    1.000000E-03	    1.000000E-03	    1.000000E+03	    0.000000E+00	    0.000000E+00	    7.462955E+05	    0.000000E+00	    1.000000E+00	    0.000000E+00	    0.000000E+00	
   -1.135797E-02	    5.309306E-05	    0.000000E+00	    0.000000E+00	    1.000000E-03	    1.000000E-03	    1.000000E+03	    0.000000E+00	    0.000000E+00	    7.462955E+05	    0.000000E+00	    1.000000E+00	    0.000000E+00	    0.000000E+00	
   -1.136277E-02	    6.691627E-05	    6.870940E-04	   -1.000000E+00	    1.600000E-03	    1.600000E-03	    8.010000E+02	    7.423340E-11	    6.916361E-08	    7.462955E+05	    8.795141E+04	    1.000000E+00	    1.975006E-06	    1.803786E+00	
   -1.137627E-02	    1.060727E-04	    1.671004E-03	   -1.000000E+00	    1.600000E-03	    1.600000E-03	    8.010000E+02	    7.617953E-14	    2.372400E-09	    2.494492E+07	    2.044475E+05	    6.768262E-04	    3.130843E-06	    1.557471E-08	
   -1.139698E-02	    1.670329E-04	    2.947771E-03	   -1.000000E+00	    1.600000E-03	    1.600000E-03	    8.010000E+02	    7.011361E-13	    8.812846E-09	    1.006807E+07	    2.562657E+05	    1.402769E-02	    4.930510E-06	    1.796771E-07	
   -1.142793E-02	    2.601914E-04	    4.715132E-03	   -1.000000E+00	    1.600000E-03	    1.600000E-03	    8.010000E+02	    5.388555E-12	    2.911597E-08	    4.328042E+06	    2.700061E+05	    1.000000E+00	    7.681254E-06	    1.454942E-06	
   -1.147263E-02	    3.994652E-04	    7.219362E-03	   -1.000000E+00	    1.600000E-03	    1.600000E-03	    8.010000E+02	    4.334861E-11	    9.934169E-08	    1.835646E+06	    2.683036E+05	    1.000000E+00	    1.179484E-05	    1.163059E-05	
   -1.153451E-02	    6.026229E-04	    1.075529E-02	   -1.000000E+00	    1.600000E-03	    1.600000E-03	    8.010000E+02	    3.317297E-10	    3.338911E-07	    8.062191E+05	    2.613422E+05	    1.000000E+00	    1.779781E-05	    8.669498E-05	
   -1.161574E-02	    8.911945E-04	    1.565468E-02	   -1.000000E+00	    1.600000E-03	    1.600000E-03	    8.010000E+02	    2.349459E-09	    1.080555E-06	    3.683930E+05	    2.527206E+05	    1.000000E+00	    2.632975E-05	    5.937566E-04	
   -1.171532E-02	    1.289754E-03	    2.229612E-02	   -1.000000E+00	    1.600003E-03	    1.600000E-03	    8.010000E+02	    1.518208E-08	    3.330751E-06	    1.757290E+05	    2.441588E+05	    1.000000E+00	    3.812352E-05	    3.706838E-03	
   -1.182650E-02	    1.824318E-03	    3.108790E-02	   -1.000000E+00	    1.600016E-03	    1.600000E-03	    8.010000E+02	    8.863224E-08	    9.706703E-06	    8.772281E+04	    2.364365E+05	    1.000000E+00	    5.395993E-05	    2.095589E-02	
   -1.193378E-02	    2.519561E-03	    4.236193E-02	   -1.000000E+00	    1.600083E-03	    1.600000E-03	    8.010000E+02	    4.601627E-07	    2.637572E-05	    4.591193E+04	    2.289964E+05	    1.000000E+00	    7.458753E-05	    1.053756E-01	
   -1.201038E-02	    3.394521E-03	    5.633296E-02	   -1.000000E+00	    1.600379E-03	    1.600000E-03	    8.010000E+02	    2.104831E-06	    6.630756E-05	    2.523355E+04	    2.211575E+05	    1.000000E+00	    1.005975E-04	    4.654992E-01	
   -1.201740E-02	    4.456772E-03	    7.308562E-02	   -1.000000E+00	    1.601525E-03	    1.600000E-03	    8.010000E+02	    8.472359E-06	    1.542777E-04	    1.458583E+04	    2.120661E+05	    1.000000E+00	    1.322506E-04	    1.796700E+00	
   -1.190645E-02	    5.695774E-03	    9.225725E-02	   -1.000000E+00	    1.605339E-03	    1.600000E-03	    8.010000E+02	    2.966267E-05	    3.289195E-04	    8.882022E+03	    1.991009E+05	    1.000000E+00	    1.692759E-04	    5.905864E+00	
   -1.162683E-02	    7.077373E-03	    1.131776E-01	   -1.000000E+00	    1.616009E-03	    1.600000E-03	    8.010000E+02	    8.893873E-05	    6.345252E-04	    5.714661E+03	    1.818155E+05	    1.000000E+00	    2.106972E-04	    1.617044E+01	
   -1.113703E-02	    8.542580E-03	    1.346401E-01	   -1.000000E+00	    1.640641E-03	    1.600000E-03	    8.010000E+02	    2.257816E-04	    1.100209E-03	    3.903185E+03	    1.620277E+05	    1.000000E+00	    2.547814E-04	    3.658288E+01	
   -1.041738E-02	    1.001346E-02	    1.556649E-01	   -1.000000E+00	    1.687238E-03	    1.600000E-03	    8.010000E+02	    4.846555E-04	    1.720073E-03	    2.842799E+03	    1.434079E+05	    1.000000E+00	    2.991994E-04	    6.950343E+01	
   -9.478652E-03	    1.140627E-02	    1.743709E-01	   -1.000000E+00	    1.755275E-03	    1.600000E-03	    8.010000E+02	    8.626411E-04	    2.380443E-03	    2.210346E+03	    1.276563E+05	    1.000000E+00	    3.414119E-04	    1.101216E+02	
   -8.361981E-03	    1.264799E-02	    1.895679E-01	   -1.000000E+00	    1.835071E-03	    1.600000E-03	    8.010000E+02	    1.305950E-03	    2.975108E-03	    1.824773E+03	    1.152499E+05	    1.000000E+00	    3.791706E-04	    1.505106E+02	
   -7.129626E-03	    1.368966E-02	    2.016430E-01	   -1.000000E+00	    1.919332E-03	    1.600000E-03	    8.010000E+02	    1.774065E-03	    3.508913E-03	    1.584293E+03	    1.055825E+05	    1.000000E+00	    4.109383E-04	    1.873103E+02	