Title="Fields"
Variables="X""Y""Velocity""Phi""Effective Viscosity""Dynamic Viscosity""Density"
Zone I=52 J=52 F=POINT
   -1.214864E-02	    6.022430E-05	    0.000000E+00	    0.000000E+00	    1.000000E-03	    1.000000E-03	    1.000000E+03	
   -1.214840E-02	    7.587058E-05	    0.000000E+00	    0.000000E+00	    1.000000E-03	    1.000000E-03	    1.000000E+03	
   -1.214760E-02	    1.201162E-04	    0.000000E+00	    0.000000E+00	    1.000000E-03	    1.000000E-03	    1.000000E+03	
   -1.214604E-02	    1.887791E-04	    0.000000E+00	    0.000000E+00	    1.000000E-03	    1.000000E-03	    1.000000E+03	
   -1.214292E-02	    2.931943E-04	    0.000000E+00	    0.000000E+00	    1.000000E-03	    1.000000E-03	    1.000000E+03	
   -1.213664E-02	    4.481479E-04	    0.000000E+00	    0.000000E+00	    1.000000E-03	    1.000000E-03	    1.000000E+03	
   -1.212408E-02	    6.717413E-04	    0.000000E+00	    0.000000E+00	    1.000000E-03	    1.000000E-03	    1.000000E+03	
   -1.209956E-02	    9.844690E-04	    0.000000E+00	    0.000000E+00	    1.000000E-03	    1.000000E-03	    1.000000E+03	
   -1.205344E-02	    1.407247E-03	    0.000000E+00	    0.000000E+00	    1.000000E-03	    1.000000E-03	    1.000000E+03	
   -1.197068E-02	    1.958259E-03	    0.000000E+00	    0.000000E+00	    1.000000E-03	    1.000000E-03	    1.000000E+03	
   -1.182997E-02	    2.648730E-03	    0.000000E+00	    0.000000E+00	    1.000000E-03	    1.000000E-03	    1.000000E+03	
   -1.160451E-02	    3.478207E-03	    0.000000E+00	    0.000000E+00	    1.000000E-03	    1.000000E-03	    1.000000E+03	
   -1.126507E-02	    4.430480E-03	    0.000000E+00	    0.000000E+00	    1.000000E-03	    1.000000E-03	    1.000000E+03	
   -1.078595E-02	    5.471867E-03	    0.000000E+00	    0.000000E+00	    1.000000E-03	    1.000000E-03	    1.000000E+03	
   -1.015215E-02	    6.553539E-03	    0.000000E+00	    0.000000E+00	    1.000000E-03	    1.000000E-03	    1.000000E+03	
   -9.365671E-03	    7.618433E-03	    0.000000E+00	    0.000000E+00	    1.000000E-03	    1.000000E-03	    1.000000E+03	
   -8.447588E-03	    8.611232E-03	    0.000000E+00	    0.000000E+00	    1.000000E-03	    1.000000E-03	    1.000000E+03	
   -7.434904E-03	    9.488106E-03	    0.000000E+00	    0.000000E+00	    1.000000E-03	    1.000000E-03	    1.000000E+03	
   -6.373128E-03	    1.022285E-02	    0.000000E+00	    0.000000E+00	    1.000000E-03	    1.000000E-03	    1.000000E+03	
   -5.307698E-03	    1.080785E-02	    0.000000E+00	    0.000000E+00	    1.000000E-03	    1.000000E-03	    1.000000E+03	
   -4.277186E-03	    1.125075E-02	    0.000000E+00	    0.000000E+00	    1.000000E-03	    1.000000E-03	    1.000000E+03	
   -3.309759E-03	    1.156900E-02	    0.000000E+00	    0.000000E+00	    1.000000E-03	    1.000000E-03	    1.000000E+03	
   -2.422722E-03	    1.178449E-02	    0.000000E+00	    0.000000E+00	    1.000000E-03	    1.000000E-03	    1.000000E+03	
   -1.624045E-03	    1.191946E-02	    0.000000E+00	    0.000000E+00	    1.000000E-03	    1.000000E-03	    1.000000E+03	
   -9.147094E-04	    1.199401E-02	    0.000000E+00	    0.000000E+00	    1.000000E-03	    1.000000E-03	    1.000000E+03	
   -2.910615E-04	    1.202500E-02	    0.000000E+00	    0.000000E+00	    1.000000E-03	    1.000000E-03	    1.000000E+03	
    2.910615E-04	    1.202500E-02	    0.000000E+00	    0.000000E+00	    1.000000E-03	    1.000000E-03	    1.000000E+03	
    9.147094E-04	    1.199401E-02	    0.000000E+00	    0.000000E+00	    1.000000E-03	    1.000000E-03	    1.000000E+03	
    1.624045E-03	    1.191946E-02	    0.000000E+00	    0.000000E+00	    1.000000E-03	    1.000000E-03	    1.000000E+03	
    2.422722E-03	    1.178449E-02	    0.000000E+00	    0.000000E+00	    1.000000E-03	    1.000000E-03	    1.000000E+03	
    3.309759E-03	    1.156900E-02	    0.000000E+00	    0.000000E+00	    1.000000E-03	    1.000000E-03	    1.000000E+03	
    4.277186E-03	    1.125075E-02	    0.000000E+00	    0.000000E+00	    1.000000E-03	    1.000000E-03	    1.000000E+03	
    5.307698E-03	    1.080785E-02	    0.000000E+00	    0.000000E+00	    1.000000E-03	    1.000000E-03	    1.000000E+03	
    6.373128E-03	    1.022285E-02	    0.000000E+00	    0.000000E+00	    1.000000E-03	    1.000000E-03	    1.000000E+03	
    7.434904E-03	    9.488106E-03	    0.000000E+00	    0.000000E+00	    1.000000E-03	    1.000000E-03	    1.000000E+03	
    8.447588E-03	    8.611232E-03	    0.000000E+00	    0.000000E+00	    1.000000E-03	    1.000000E-03	    1.000000E+03	
    9.365671E-03	    7.618433E-03	    0.000000E+00	    0.000000E+00	    1.000000E-03	    1.000000E-03	    1.000000E+03	
    1.015215E-02	    6.553539E-03	    0.000000E+00	    0.000000E+00	    1.000000E-03	    1.000000E-03	    1.000000E+03	
    1.078595E-02	    5.471867E-03	    0.000000E+00	    0.000000E+00	    1.000000E-03	    1.000000E-03	    1.000000E+03	
    1.126507E-02	    4.430480E-03	    0.000000E+00	    0.000000E+00	    1.000000E-03	    1.000000E-03	    1.000000E+03	
    1.160451E-02	    3.478207E-03	    0.000000E+00	    0.000000E+00	    1.000000E-03	    1.000000E-03	    1.000000E+03	
    1.182997E-02	    2.648730E-03	    0.000000E+00	    0.000000E+00	    1.000000E-03	    1.000000E-03	    1.000000E+03	
    1.197068E-02	    1.958259E-03	    0.000000E+00	    0.000000E+00	    1.000000E-03	    1.000000E-03	    1.000000E+03	
    1.205344E-02	    1.407247E-03	    0.000000E+00	    0.000000E+00	    1.000000E-03	    1.000000E-03	    1.000000E+03	
    1.209956E-02	    9.844690E-04	    0.000000E+00	    0.000000E+00	    1.000000E-03	    1.000000E-03	    1.000000E+03	
    1.212408E-02	    6.717413E-04	    0.000000E+00	    0.000000E+00	    1.000000E-03	    1.000000E-03	    1.000000E+03	
    1.213664E-02	    4.481479E-04	    0.000000E+00	    0.000000E+00	    1.000000E-03	    1.000000E-03	    1.000000E+03	
    1.214292E-02	    2.931943E-04	    0.000000E+00	    0.000000E+00	    1.000000E-03	    1.000000E-03	    1.000000E+03	
    1.214604E-02	    1.887791E-04	    0.000000E+00	    0.000000E+00	    1.000000E-03	    1.000000E-03	    1.000000E+03	
    1.214760E-02	    1.201162E-04	    0.000000E+00	    0.000000E+00	    1.000000E-03	    1.000000E-03	    1.000000E+03	
    1.214840E-02	    7.587058E-05	    0.000000E+00	    0.000000E+00	    1.000000E-03	    1.000000E-03	    1.000000E+03	
    1.214864E-02	    6.022430E-05	    0.000000E+00	    0.000000E+00	    1.000000E-03	    1.000000E-03	    1.000000E+03	
   -1.214823E-02	    6.021683E-05	    0.000000E+00	    0.000000E+00	    1.000000E-03	    1.000000E-03	    1.000000E+03	
   -1.214788E-02	    7.586052E-05	    5.179906E-06	   -1.000000E+00	    1.000000E-03	    1.000000E-03	    1.000000E+03	
   -1.214679E-02	    1.200973E-04	    1.653169E-05	   -1.000000E+00	    1.000000E-03	    1.000000E-03	    1.000000E+03	
   -1.214476E-02	    1.887422E-04	    3.111756E-05	   -1.000000E+00	    1.000000E-03	    1.000000E-03	    1.000000E+03	
   -1.214094E-02	    2.931200E-04	    5.146183E-05	   -1.000000E+00	    1.000000E-03	    1.000000E-03	    1.000000E+03	
   -1.213361E-02	    4.479956E-04	    8.055556E-05	   -1.000000E+00	    1.000000E-03	    1.000000E-03	    1.000000E+03	
   -1.211955E-02	    6.714295E-04	    1.218976E-04	   -1.000000E+00	    1.000000E-03	    1.000000E-03	    1.000000E+03	
   -1.209293E-02	    9.838409E-04	    1.793686E-04	   -1.000000E+00	    1.000000E-03	    1.000000E-03	    1.000000E+03	
   -1.204401E-02	    1.406019E-03	    2.568931E-04	   -1.000000E+00	    1.000000E-03	    1.000000E-03	    1.000000E+03	
   -1.195764E-02	    1.955950E-03	    3.578690E-04	   -1.000000E+00	    1.000000E-03	    1.000000E-03	    1.000000E+03	
   -1.181256E-02	    2.644592E-03	    4.843928E-04	   -1.000000E+00	    1.000000E-03	    1.000000E-03	    1.000000E+03	
   -1.158209E-02	    3.471174E-03	    6.363909E-04	   -1.000000E+00	    1.000000E-03	    1.000000E-03	    1.000000E+03	
   -1.123737E-02	    4.419184E-03	    8.108748E-04	   -1.000000E+00	    1.000000E-03	    1.000000E-03	    1.000000E+03	
   -1.075320E-02	    5.454761E-03	    1.001636E-03	   -1.000000E+00	    1.000000E-03	    1.000000E-03	    1.000000E+03	
   -1.011526E-02	    6.529133E-03	    1.199688E-03	   -1.000000E+00	    1.000000E-03	    1.000000E-03	    1.000000E+03	
   -9.326131E-03	    7.585583E-03	    1.394547E-03	   -1.000000E+00	    1.000000E-03	    1.000000E-03	    1.000000E+03	
   -8.407298E-03	    8.569386E-03	    1.576073E-03	   -1.000000E+00	    1.000000E-03	    1.000000E-03	    1.000000E+03	
   -7.395852E-03	    9.437416E-03	    1.736263E-03	   -1.000000E+00	    1.000000E-03	    1.000000E-03	    1.000000E+03	
   -6.337076E-03	    1.016410E-02	    1.870359E-03	   -1.000000E+00	    1.000000E-03	    1.000000E-03	    1.000000E+03	
   -5.275965E-03	    1.074226E-02	    1.977017E-03	   -1.000000E+00	    1.000000E-03	    1.000000E-03	    1.000000E+03	
   -4.250572E-03	    1.117973E-02	    2.057679E-03	   -1.000000E+00	    1.000000E-03	    1.000000E-03	    1.000000E+03	
   -3.288586E-03	    1.149395E-02	    2.115569E-03	   -1.000000E+00	    1.000000E-03	    1.000000E-03	    1.000000E+03	
   -2.406937E-03	    1.170665E-02	    2.154707E-03	   -1.000000E+00	    1.000000E-03	    1.000000E-03	    1.000000E+03	
   -1.613343E-03	    1.183985E-02	    2.179161E-03	   -1.000000E+00	    1.000000E-03	    1.000000E-03	    1.000000E+03	
   -9.086444E-04	    1.191341E-02	    2.192604E-03	   -1.000000E+00	    1.000000E-03	    1.000000E-03	    1.000000E+03	
   -2.891266E-04	    1.194399E-02	    2.198110E-03	   -1.000000E+00	    1.000000E-03	    1.000000E-03	    1.000000E+03	
    2.891266E-04	    1.194399E-02	    2.198110E-03	   -1.000000E+00	    1.000000E-03	    1.000000E-03	    1.000000E+03	
    9.086444E-04	    1.191341E-02	    2.192604E-03	   -1.000000E+00	    1.000000E-03	    1.000000E-03	    1.000000E+03	
    1.613343E-03	    1.183985E-02	    2.179161E-03	   -1.000000E+00	    1.000000E-03	    1.000000E-03	    1.000000E+03	
    2.406937E-03	    1.170665E-02	    2.154707E-03	   -1.000000E+00	    1.000000E-03	    1.000000E-03	    1.000000E+03	
    3.288586E-03	    1.149395E-02	    2.115569E-03	   -1.000000E+00	    1.000000E-03	    1.000000E-03	    1.000000E+03	
    4.250572E-03	    1.117973E-02	    2.057679E-03	   -1.000000E+00	    1.000000E-03	    1.000000E-03	    1.000000E+03	
    5.275965E-03	    1.074226E-02	    1.977017E-03	   -1.000000E+00	    1.000000E-03	    1.000000E-03	    1.000000E+03	
    6.337076E-03	    1.016410E-02	    1.870359E-03	   -1.000000E+00	    1.000000E-03	    1.000000E-03	    1.000000E+03	
    7.395852E-03	    9.437416E-03	    1.736263E-03	   -1.000000E+00	    1.000000E-03	    1.000000E-03	    1.000000E+03	
    8.407298E-03	    8.569386E-03	    1.576073E-03	   -1.000000E+00	    1.000000E-03	    1.000000E-03	    1.000000E+03	
    9.326131E-03	    7.585583E-03	    1.394547E-03	   -1.000000E+00	    1.000000E-03	    1.000000E-03	    1.000000E+03	
    1.011526E-02	    6.529133E-03	    1.199688E-03	   -1.000000E+00	    1.000000E-03	    1.000000E-03	    1.000000E+03	
    1.075320E-02	    5.454761E-03	    1.001636E-03	   -1.000000E+00	    1.000000E-03	    1.000000E-03	    1.000000E+03	
    1.123737E-02	    4.419184E-03	    8.108748E-04	   -1.000000E+00	    1.000000E-03	    1.000000E-03	    1.000000E+03	
    1.158209E-02	    3.471174E-03	    6.363909E-04	   -1.000000E+00	    1.000000E-03	    1.000000E-03	    1.000000E+03	
    1.181256E-02	    2.644592E-03	    4.843928E-04	   -1.000000E+00	    1.000000E-03	    1.000000E-03	    1.000000E+03	
    1.195764E-02	    1.955950E-03	    3.578690E-04	   -1.000000E+00	    1.000000E-03	    1.000000E-03	    1.000000E+03	
    1.204401E-02	    1.406019E-03	    2.568931E-04	   -1.000000E+00	    1.000000E-03	    1.000000E-03	    1.000000E+03	
    1.209293E-02	    9.838409E-04	    1.793686E-04	   -1.000000E+00	    1.000000E-03	    1.000000E-03	    1.000000E+03	
    1.211955E-02	    6.714295E-04	    1.218976E-04	   -1.000000E+00	    1.000000E-03	    1.000000E-03	    1.000000E+03	
    1.213361E-02	    4.479956E-04	    8.055556E-05	   -1.000000E+00	    1.000000E-03	    1.000000E-03	    1.000000E+03	
    1.214094E-02	    2.931200E-04	    5.146183E-05	   -1.000000E+00	    1.000000E-03	    1.000000E-03	    1.000000E+03	
    1.214476E-02	    1.887422E-04	    3.111756E-05	   -1.000000E+00	    1.000000E-03	    1.000000E-03	    1.000000E+03	
    1.214679E-02	    1.200973E-04	    1.653169E-05	   -1.000000E+00	    1.000000E-03	    1.000000E-03	    1.000000E+03	
    1.214788E-02	    7.586052E-05	    5.179906E-06	   -1.000000E+00	    1.000000E-03	    1.000000E-03	    1.000000E+03	
    1.214823E-02	    6.021683E-05	    0.000000E+00	    0.000000E+00	    1.000000E-03	    1.000000E-03	    1.000000E+03	
   -1.214729E-02	    6.018899E-05	    0.000000E+00	    0.000000E+00	    1.000000E-03	    1.000000E-03	    1.000000E+03	
   -1.214670E-02	    7.582392E-05	    1.716162E-05	   -1.000000E+00	    1.000000E-03	    1.000000E-03	    1.000000E+03	
   -1.214491E-02	    1.200325E-04	    5.477494E-05	   -1.000000E+00	    1.000000E-03	    1.000000E-03	    1.000000E+03	
   -1.214181E-02	    1.886237E-04	    1.030947E-04	   -1.000000E+00	    1.000000E-03	    1.000000E-03	    1.000000E+03	
   -1.213636E-02	    2.928966E-04	    1.704713E-04	   -1.000000E+00	    1.000000E-03	    1.000000E-03	    1.000000E+03	
   -1.212662E-02	    4.475651E-04	    2.667841E-04	   -1.000000E+00	    1.000000E-03	    1.000000E-03	    1.000000E+03	
   -1.210908E-02	    6.705913E-04	    4.035621E-04	   -1.000000E+00	    1.000000E-03	    1.000000E-03	    1.000000E+03	
   -1.207763E-02	    9.822179E-04	    5.935421E-04	   -1.000000E+00	    1.000000E-03	    1.000000E-03	    1.000000E+03	
   -1.202224E-02	    1.402938E-03	    8.495190E-04	   -1.000000E+00	    1.000000E-03	    1.000000E-03	    1.000000E+03	
   -1.192760E-02	    1.950285E-03	    1.182426E-03	   -1.000000E+00	    1.000000E-03	    1.000000E-03	    1.000000E+03	
   -1.177247E-02	    2.634602E-03	    1.598762E-03	   -1.000000E+00	    1.000000E-03	    1.000000E-03	    1.000000E+03	
   -1.153054E-02	    3.454396E-03	    2.097750E-03	   -1.000000E+00	    1.000000E-03	    1.000000E-03	    1.000000E+03	
   -1.117378E-02	    4.392486E-03	    2.668982E-03	   -1.000000E+00	    1.000000E-03	    1.000000E-03	    1.000000E+03	
   -1.067819E-02	    5.414627E-03	    3.291586E-03	   -1.000000E+00	    1.000000E-03	    1.000000E-03	    1.000000E+03	
   -1.003092E-02	    6.472202E-03	    3.935872E-03	   -1.000000E+00	    1.000000E-03	    1.000000E-03	    1.000000E+03	
   -9.235908E-03	    7.509308E-03	    4.567676E-03	   -1.000000E+00	    1.000000E-03	    1.000000E-03	    1.000000E+03	
   -8.315531E-03	    8.472589E-03	    5.154388E-03	   -1.000000E+00	    1.000000E-03	    1.000000E-03	    1.000000E+03	
   -7.307046E-03	    9.320508E-03	    5.670643E-03	   -1.000000E+00	    1.000000E-03	    1.000000E-03	    1.000000E+03	
   -6.255200E-03	    1.002892E-02	    6.101728E-03	   -1.000000E+00	    1.000000E-03	    1.000000E-03	    1.000000E+03	
   -5.203974E-03	    1.059160E-02	    6.443905E-03	   -1.000000E+00	    1.000000E-03	    1.000000E-03	    1.000000E+03	
   -4.190244E-03	    1.101682E-02	    6.702267E-03	   -1.000000E+00	    1.000000E-03	    1.000000E-03	    1.000000E+03	
   -3.240619E-03	    1.132194E-02	    6.887466E-03	   -1.000000E+00	    1.000000E-03	    1.000000E-03	    1.000000E+03	
   -2.371190E-03	    1.152835E-02	    7.012563E-03	   -1.000000E+00	    1.000000E-03	    1.000000E-03	    1.000000E+03	
   -1.589113E-03	    1.165754E-02	    7.090678E-03	   -1.000000E+00	    1.000000E-03	    1.000000E-03	    1.000000E+03	
   -8.949146E-04	    1.172888E-02	    7.133600E-03	   -1.000000E+00	    1.000000E-03	    1.000000E-03	    1.000000E+03	
   -2.847468E-04	    1.175853E-02	    7.151170E-03	   -1.000000E+00	    1.000000E-03	    1.000000E-03	    1.000000E+03	
    2.847468E-04	    1.175853E-02	    7.151170E-03	   -1.000000E+00	    1.000000E-03	    1.000000E-03	    1.000000E+03	
    8.949146E-04	    1.172888E-02	    7.133600E-03	   -1.000000E+00	    1.000000E-03	    1.000000E-03	    1.000000E+03	
    1.589113E-03	    1.165754E-02	    7.090678E-03	   -1.000000E+00	    1.000000E-03	    1.000000E-03	    1.000000E+03	
    2.371190E-03	    1.152835E-02	    7.012563E-03	   -1.000000E+00	    1.000000E-03	    1.000000E-03	    1.000000E+03	
    3.240619E-03	    1.132194E-02	    6.887466E-03	   -1.000000E+00	    1.000000E-03	    1.000000E-03	    1.000000E+03	
    4.190244E-03	    1.101682E-02	    6.702267E-03	   -1.000000E+00	    1.000000E-03	    1.000000E-03	    1.000000E+03	
    5.203974E-03	    1.059160E-02	    6.443905E-03	   -1.000000E+00	    1.000000E-03	    1.000000E-03	    1.000000E+03	
    6.255200E-03	    1.002892E-02	    6.101728E-03	   -1.000000E+00	    1.000000E-03	    1.000000E-03	    1.000000E+03	
    7.307046E-03	    9.320508E-03	    5.670643E-03	   -1.000000E+00	    1.000000E-03	    1.000000E-03	    1.000000E+03	
    8.315531E-03	    8.472589E-03	    5.154388E-03	   -1.000000E+00	    1.000000E-03	    1.000000E-03	    1.000000E+03	
    9.235908E-03	    7.509308E-03	    4.567676E-03	   -1.000000E+00	    1.000000E-03	    1.000000E-03	    1.000000E+03	
    1.003092E-02	    6.472202E-03	    3.935872E-03	   -1.000000E+00	    1.000000E-03	    1.000000E-03	    1.000000E+03	
    1.067819E-02	    5.414627E-03	    3.291586E-03	   -1.000000E+00	    1.000000E-03	    1.000000E-03	    1.000000E+03	
    1.117378E-02	    4.392486E-03	    2.668982E-03	   -1.000000E+00	    1.000000E-03	    1.000000E-03	    1.000000E+03	
    1.153054E-02	    3.454396E-03	    2.097750E-03	   -1.000000E+00	    1.000000E-03	    1.000000E-03	    1.000000E+03	
    1.177247E-02	    2.634602E-03	    1.598762E-03	   -1.000000E+00	    1.000000E-03	    1.000000E-03	    1.000000E+03	
    1.192760E-02	    1.950285E-03	    1.182426E-03	   -1.000000E+00	    1.000000E-03	    1.000000E-03	    1.000000E+03	
    1.202224E-02	    1.402938E-03	    8.495190E-04	   -1.000000E+00	    1.000000E-03	    1.000000E-03	    1.000000E+03	
    1.207763E-02	    9.822179E-04	    5.935421E-04	   -1.000000E+00	    1.000000E-03	    1.000000E-03	    1.000000E+03	
    1.210908E-02	    6.705913E-04	    4.035621E-04	   -1.000000E+00	    1.000000E-03	    1.000000E-03	    1.000000E+03	
    1.212662E-02	    4.475651E-04	    2.667841E-04	   -1.000000E+00	    1.000000E-03	    1.000000E-03	    1.000000E+03	
    1.213636E-02	    2.928966E-04	    1.704713E-04	   -1.000000E+00	    1.000000E-03	    1.000000E-03	    1.000000E+03	
    1.214181E-02	    1.886237E-04	    1.030947E-04	   -1.000000E+00	    1.000000E-03	    1.000000E-03	    1.000000E+03	
    1.214491E-02	    1.200325E-04	    5.477494E-05	   -1.000000E+00	    1.000000E-03	    1.000000E-03	    1.000000E+03	
    1.214670E-02	    7.582392E-05	    1.716162E-05	   -1.000000E+00	    1.000000E-03	    1.000000E-03	    1.000000E+03	
    1.214729E-02	    6.018899E-05	    0.000000E+00	    0.000000E+00	    1.000000E-03	    1.000000E-03	    1.000000E+03	
   -1.214606E-02	    6.013026E-05	    0.000000E+00	    0.000000E+00	    1.000000E-03	    1.000000E-03	    1.000000E+03	
   -1.214514E-02	    7.574794E-05	    3.283750E-05	   -1.000000E+00	    1.000000E-03	    1.000000E-03	    1.000000E+03	
   -1.214245E-02	    1.199033E-04	    1.048147E-04	   -1.000000E+00	    1.000000E-03	    1.000000E-03	    1.000000E+03	
   -1.213795E-02	    1.883989E-04	    1.972602E-04	   -1.000000E+00	    1.000000E-03	    1.000000E-03	    1.000000E+03	
   -1.213037E-02	    2.924961E-04	    3.261239E-04	   -1.000000E+00	    1.000000E-03	    1.000000E-03	    1.000000E+03	
   -1.211747E-02	    4.468365E-04	    5.102452E-04	   -1.000000E+00	    1.000000E-03	    1.000000E-03	    1.000000E+03	
   -1.209540E-02	    6.692483E-04	    7.715512E-04	   -1.000000E+00	    1.000000E-03	    1.000000E-03	    1.000000E+03	
   -1.205766E-02	    9.797365E-04	    1.134160E-03	   -1.000000E+00	    1.000000E-03	    1.000000E-03	    1.000000E+03	
   -1.199387E-02	    1.398403E-03	    1.622120E-03	   -1.000000E+00	    1.000000E-03	    1.000000E-03	    1.000000E+03	
   -1.188851E-02	    1.942193E-03	    2.255676E-03	   -1.000000E+00	    1.000000E-03	    1.000000E-03	    1.000000E+03	
   -1.172040E-02	    2.620657E-03	    3.046335E-03	   -1.000000E+00	    1.000000E-03	    1.000000E-03	    1.000000E+03	
   -1.146377E-02	    3.431390E-03	    3.991520E-03	   -1.000000E+00	    1.000000E-03	    1.000000E-03	    1.000000E+03	
   -1.109163E-02	    4.356381E-03	    5.070301E-03	   -1.000000E+00	    1.000000E-03	    1.000000E-03	    1.000000E+03	
   -1.058159E-02	    5.360949E-03	    6.242162E-03	   -1.000000E+00	    1.000000E-03	    1.000000E-03	    1.000000E+03	
   -9.922637E-03	    6.396736E-03	    7.450521E-03	   -1.000000E+00	    1.000000E-03	    1.000000E-03	    1.000000E+03	
   -9.120430E-03	    7.408934E-03	    8.631223E-03	   -1.000000E+00	    1.000000E-03	    1.000000E-03	    1.000000E+03	
   -8.198411E-03	    8.345953E-03	    9.723900E-03	   -1.000000E+00	    1.000000E-03	    1.000000E-03	    1.000000E+03	
   -7.193990E-03	    9.168276E-03	    1.068237E-02	   -1.000000E+00	    1.000000E-03	    1.000000E-03	    1.000000E+03	
   -6.151185E-03	    9.853527E-03	    1.148057E-02	   -1.000000E+00	    1.000000E-03	    1.000000E-03	    1.000000E+03	
   -5.112670E-03	    1.039667E-02	    1.211275E-02	   -1.000000E+00	    1.000000E-03	    1.000000E-03	    1.000000E+03	
   -4.113828E-03	    1.080645E-02	    1.258926E-02	   -1.000000E+00	    1.000000E-03	    1.000000E-03	    1.000000E+03	
   -3.179915E-03	    1.110014E-02	    1.293040E-02	   -1.000000E+00	    1.000000E-03	    1.000000E-03	    1.000000E+03	
   -2.325977E-03	    1.129865E-02	    1.316061E-02	   -1.000000E+00	    1.000000E-03	    1.000000E-03	    1.000000E+03	
   -1.558480E-03	    1.142283E-02	    1.330426E-02	   -1.000000E+00	    1.000000E-03	    1.000000E-03	    1.000000E+03	
   -8.775599E-04	    1.149137E-02	    1.338316E-02	   -1.000000E+00	    1.000000E-03	    1.000000E-03	    1.000000E+03	
   -2.792112E-04	    1.151985E-02	    1.341544E-02	   -1.000000E+00	    1.000000E-03	    1.000000E-03	    1.000000E+03	
    2.792112E-04	    1.151985E-02	    1.341544E-02	   -1.000000E+00	    1.000000E-03	    1.000000E-03	    1.000000E+03	
    8.775599E-04	    1.149137E-02	    1.338316E-02	   -1.000000E+00	    1.000000E-03	    1.000000E-03	    1.000000E+03	
    1.558480E-03	    1.142283E-02	    1.330426E-02	   -1.000000E+00	    1.000000E-03	    1.000000E-03	    1.000000E+03	
    2.325977E-03	    1.129865E-02	    1.316061E-02	   -1.000000E+00	    1.000000E-03	    1.000000E-03	    1.000000E+03	
    3.179915E-03	    1.110014E-02	    1.293040E-02	   -1.000000E+00	    1.000000E-03	    1.000000E-03	    1.000000E+03	
    4.113828E-03	    1.080645E-02	    1.258926E-02	   -1.000000E+00	    1.000000E-03	    1.000000E-03	    1.000000E+03	
    5.112670E-03	    1.039667E-02	    1.211275E-02	   -1.000000E+00	    1.000000E-03	    1.000000E-03	    1.000000E+03	
    6.151185E-03	    9.853527E-03	    1.148057E-02	   -1.000000E+00	    1.000000E-03	    1.000000E-03	    1.000000E+03	
    7.193990E-03	    9.168276E-03	    1.068237E-02	   -1.000000E+00	    1.000000E-03	    1.000000E-03	    1.000000E+03	
    8.198411E-03	    8.345953E-03	    9.723900E-03	   -1.000000E+00	    1.000000E-03	    1.000000E-03	    1.000000E+03	
    9.120430E-03	    7.408934E-03	    8.631223E-03	   -1.000000E+00	    1.000000E-03	    1.000000E-03	    1.000000E+03	
    9.922637E-03	    6.396736E-03	    7.450521E-03	   -1.000000E+00	    1.000000E-03	    1.000000E-03	    1.000000E+03	
    1.058159E-02	    5.360949E-03	    6.242162E-03	   -1.000000E+00	    1.000000E-03	    1.000000E-03	    1.000000E+03	
    1.109163E-02	    4.356381E-03	    5.070301E-03	   -1.000000E+00	    1.000000E-03	    1.000000E-03	    1.000000E+03	
    1.146377E-02	    3.431390E-03	    3.991520E-03	   -1.000000E+00	    1.000000E-03	    1.000000E-03	    1.000000E+03	
    1.172040E-02	    2.620657E-03	    3.046335E-03	   -1.000000E+00	    1.000000E-03	    1.000000E-03	    1.000000E+03	
    1.188851E-02	    1.942193E-03	    2.255676E-03	   -1.000000E+00	    1.000000E-03	    1.000000E-03	    1.000000E+03	
    1.199387E-02	    1.398403E-03	    1.622120E-03	   -1.000000E+00	    1.000000E-03	    1.000000E-03	    1.000000E+03	
    1.205766E-02	    9.797365E-04	    1.134160E-03	   -1.000000E+00	    1.000000E-03	    1.000000E-03	    1.000000E+03	
    1.209540E-02	    6.692483E-04	    7.715512E-04	   -1.000000E+00	    1.000000E-03	    1.000000E-03	    1.000000E+03	
    1.211747E-02	    4.468365E-04	    5.102452E-04	   -1.000000E+00	    1.000000E-03	    1.000000E-03	    1.000000E+03	
    1.213037E-02	    2.924961E-04	    3.261239E-04	   -1.000000E+00	    1.000000E-03	    1.000000E-03	    1.000000E+03	
    1.213795E-02	    1.883989E-04	    1.972602E-04	   -1.000000E+00	    1.000000E-03	    1.000000E-03	    1.000000E+03	
    1.214245E-02	    1.199033E-04	    1.048147E-04	   -1.000000E+00	    1.000000E-03	    1.000000E-03	    1.000000E+03	
    1.214514E-02	    7.574794E-05	    3.283750E-05	   -1.000000E+00	    1.000000E-03	    1.000000E-03	    1.000000E+03	
    1.214606E-02	    6.013026E-05	    0.000000E+00	    0.000000E+00	    1.000000E-03	    1.000000E-03	    1.000000E+03	
   -1.214446E-02	    6.001622E-05	    0.000000E+00	    0.000000E+00	    1.000000E-03	    1.000000E-03	    1.000000E+03	
   -1.214313E-02	    7.560169E-05	    5.317781E-05	   -1.000000E+00	    1.000000E-03	    1.000000E-03	    1.000000E+03	
   -1.213926E-02	    1.196602E-04	    1.697522E-04	   -1.000000E+00	    1.000000E-03	    1.000000E-03	    1.000000E+03	
   -1.213294E-02	    1.879887E-04	    3.194367E-04	   -1.000000E+00	    1.000000E-03	    1.000000E-03	    1.000000E+03	
   -1.212260E-02	    2.917928E-04	    5.280037E-04	   -1.000000E+00	    1.000000E-03	    1.000000E-03	    1.000000E+03	
   -1.210562E-02	    4.456116E-04	    8.258309E-04	   -1.000000E+00	    1.000000E-03	    1.000000E-03	    1.000000E+03	
   -1.207769E-02	    6.670889E-04	    1.248155E-03	   -1.000000E+00	    1.000000E-03	    1.000000E-03	    1.000000E+03	
   -1.203184E-02	    9.759126E-04	    1.833519E-03	   -1.000000E+00	    1.000000E-03	    1.000000E-03	    1.000000E+03	
   -1.195724E-02	    1.391671E-03	    2.619983E-03	   -1.000000E+00	    1.000000E-03	    1.000000E-03	    1.000000E+03	
   -1.183814E-02	    1.930551E-03	    3.638973E-03	   -1.000000E+00	    1.000000E-03	    1.000000E-03	    1.000000E+03	
   -1.165350E-02	    2.601098E-03	    4.907267E-03	   -1.000000E+00	    1.000000E-03	    1.000000E-03	    1.000000E+03	
   -1.137824E-02	    3.399777E-03	    6.418542E-03	   -1.000000E+00	    1.000000E-03	    1.000000E-03	    1.000000E+03	
   -1.098678E-02	    4.307582E-03	    8.136941E-03	   -1.000000E+00	    1.000000E-03	    1.000000E-03	    1.000000E+03	
   -1.045876E-02	    5.289367E-03	    9.995807E-03	   -1.000000E+00	    1.000000E-03	    1.000000E-03	    1.000000E+03	
   -9.785511E-03	    6.297201E-03	    1.190410E-02	   -1.000000E+00	    1.000000E-03	    1.000000E-03	    1.000000E+03	
   -8.974765E-03	    7.277735E-03	    1.376044E-02	   -1.000000E+00	    1.000000E-03	    1.000000E-03	    1.000000E+03	
   -8.051209E-03	    8.181634E-03	    1.547112E-02	   -1.000000E+00	    1.000000E-03	    1.000000E-03	    1.000000E+03	
   -7.052346E-03	    8.971895E-03	    1.696595E-02	   -1.000000E+00	    1.000000E-03	    1.000000E-03	    1.000000E+03	
   -6.021212E-03	    9.628299E-03	    1.820673E-02	   -1.000000E+00	    1.000000E-03	    1.000000E-03	    1.000000E+03	
   -4.998818E-03	    1.014721E-02	    1.918680E-02	   -1.000000E+00	    1.000000E-03	    1.000000E-03	    1.000000E+03	
   -4.018692E-03	    1.053791E-02	    1.992398E-02	   -1.000000E+00	    1.000000E-03	    1.000000E-03	    1.000000E+03	
   -3.104425E-03	    1.081750E-02	    2.045090E-02	   -1.000000E+00	    1.000000E-03	    1.000000E-03	    1.000000E+03	
   -2.269796E-03	    1.100628E-02	    2.080609E-02	   -1.000000E+00	    1.000000E-03	    1.000000E-03	    1.000000E+03	
   -1.520433E-03	    1.112429E-02	    2.102755E-02	   -1.000000E+00	    1.000000E-03	    1.000000E-03	    1.000000E+03	
   -8.560108E-04	    1.118940E-02	    2.114911E-02	   -1.000000E+00	    1.000000E-03	    1.000000E-03	    1.000000E+03	
   -2.723384E-04	    1.121646E-02	    2.119882E-02	   -1.000000E+00	    1.000000E-03	    1.000000E-03	    1.000000E+03	
    2.723384E-04	    1.121646E-02	    2.119882E-02	   -1.000000E+00	    1.000000E-03	    1.000000E-03	    1.000000E+03	
    8.560108E-04	    1.118940E-02	    2.114911E-02	   -1.000000E+00	    1.000000E-03	    1.000000E-03	    1.000000E+03	
    1.520433E-03	    1.112429E-02	    2.102755E-02	   -1.000000E+00	    1.000000E-03	    1.000000E-03	    1.000000E+03	
    2.269796E-03	    1.100628E-02	    2.080609E-02	   -1.000000E+00	    1.000000E-03	    1.000000E-03	    1.000000E+03	
    3.104425E-03	    1.081750E-02	    2.045090E-02	   -1.000000E+00	    1.000000E-03	    1.000000E-03	    1.000000E+03	
    4.018692E-03	    1.053791E-02	    1.992398E-02	   -1.000000E+00	    1.000000E-03	    1.000000E-03	    1.000000E+03	
    4.998818E-03	    1.014721E-02	    1.918680E-02	   -1.000000E+00	    1.000000E-03	    1.000000E-03	    1.000000E+03	
    6.021212E-03	    9.628299E-03	    1.820673E-02	   -1.000000E+00	    1.000000E-03	    1.000000E-03	    1.000000E+03	
    7.052346E-03	    8.971895E-03	    1.696595E-02	   -1.000000E+00	    1.000000E-03	    1.000000E-03	    1.000000E+03	
    8.051209E-03	    8.181634E-03	    1.547112E-02	   -1.000000E+00	    1.000000E-03	    1.000000E-03	    1.000000E+03	
    8.974765E-03	    7.277735E-03	    1.376044E-02	   -1.000000E+00	    1.000000E-03	    1.000000E-03	    1.000000E+03	
    9.785511E-03	    6.297201E-03	    1.190410E-02	   -1.000000E+00	    1.000000E-03	    1.000000E-03	    1.000000E+03	
    1.045876E-02	    5.289367E-03	    9.995807E-03	   -1.000000E+00	    1.000000E-03	    1.000000E-03	    1.000000E+03	
    1.098678E-02	    4.307582E-03	    8.136941E-03	   -1.000000E+00	    1.000000E-03	    1.000000E-03	    1.000000E+03	
    1.137824E-02	    3.399777E-03	    6.418542E-03	   -1.000000E+00	    1.000000E-03	    1.000000E-03	    1.000000E+03	