Title="Fields"
Variables="X""Y""Velocity""Phi""Effective Viscosity""Dynamic Viscosity""Density""Eddy Viscosity""K""Omega""S""F1SST""distance""GEN"
Zone I=52 J=52 F=POINT
   -2.799433E-02	    1.387669E-04	    0.000000E+00	    0.000000E+00	    1.000000E-03	    1.000000E-03	    1.000000E+03	    0.000000E+00	    0.000000E+00	    1.196317E+08	    0.000000E+00	    1.000000E+00	    0.000000E+00	    0.000000E+00	
   -2.799358E-02	    1.748174E-04	    0.000000E+00	    0.000000E+00	    1.000000E-03	    1.000000E-03	    1.000000E+03	    0.000000E+00	    0.000000E+00	    1.196317E+08	    0.000000E+00	    1.000000E+00	    0.000000E+00	    0.000000E+00	
   -2.799122E-02	    2.767608E-04	    0.000000E+00	    0.000000E+00	    1.000000E-03	    1.000000E-03	    1.000000E+03	    0.000000E+00	    0.000000E+00	    4.773286E+07	    0.000000E+00	    1.000000E+00	    0.000000E+00	    0.000000E+00	
   -2.798680E-02	    4.349551E-04	    0.000000E+00	    0.000000E+00	    1.000000E-03	    1.000000E-03	    1.000000E+03	    0.000000E+00	    0.000000E+00	    1.932655E+07	    0.000000E+00	    1.000000E+00	    0.000000E+00	    0.000000E+00	
   -2.797838E-02	    6.755022E-04	    0.000000E+00	    0.000000E+00	    1.000000E-03	    1.000000E-03	    1.000000E+03	    0.000000E+00	    0.000000E+00	    8.013360E+06	    0.000000E+00	    1.000000E+00	    0.000000E+00	    0.000000E+00	
   -2.796207E-02	    1.032438E-03	    0.000000E+00	    0.000000E+00	    1.000000E-03	    1.000000E-03	    1.000000E+03	    0.000000E+00	    0.000000E+00	    3.430659E+06	    0.000000E+00	    1.000000E+00	    0.000000E+00	    0.000000E+00	
   -2.793047E-02	    1.547403E-03	    0.000000E+00	    0.000000E+00	    1.000000E-03	    1.000000E-03	    1.000000E+03	    0.000000E+00	    0.000000E+00	    1.527399E+06	    0.000000E+00	    1.000000E+00	    0.000000E+00	    0.000000E+00	
   -2.787028E-02	    2.267492E-03	    0.000000E+00	    0.000000E+00	    1.000000E-03	    1.000000E-03	    1.000000E+03	    0.000000E+00	    0.000000E+00	    7.114483E+05	    0.000000E+00	    1.000000E+00	    0.000000E+00	    0.000000E+00	
   -2.775907E-02	    3.240680E-03	    0.000000E+00	    0.000000E+00	    1.000000E-03	    1.000000E-03	    1.000000E+03	    0.000000E+00	    0.000000E+00	    3.483891E+05	    0.000000E+00	    1.000000E+00	    0.000000E+00	    0.000000E+00	
   -2.756201E-02	    4.508521E-03	    0.000000E+00	    0.000000E+00	    1.000000E-03	    1.000000E-03	    1.000000E+03	    0.000000E+00	    0.000000E+00	    1.800541E+05	    0.000000E+00	    1.000000E+00	    0.000000E+00	    0.000000E+00	
   -2.723007E-02	    6.096414E-03	    0.000000E+00	    0.000000E+00	    1.000000E-03	    1.000000E-03	    1.000000E+03	    0.000000E+00	    0.000000E+00	    9.851320E+04	    0.000000E+00	    1.000000E+00	    0.000000E+00	    0.000000E+00	
   -2.670169E-02	    8.002752E-03	    0.000000E+00	    0.000000E+00	    1.000000E-03	    1.000000E-03	    1.000000E+03	    0.000000E+00	    0.000000E+00	    5.719817E+04	    0.000000E+00	    1.000000E+00	    0.000000E+00	    0.000000E+00	
   -2.591020E-02	    1.018965E-02	    0.000000E+00	    0.000000E+00	    1.000000E-03	    1.000000E-03	    1.000000E+03	    0.000000E+00	    0.000000E+00	    3.530364E+04	    0.000000E+00	    1.000000E+00	    0.000000E+00	    0.000000E+00	
   -2.479723E-02	    1.257917E-02	    0.000000E+00	    0.000000E+00	    1.000000E-03	    1.000000E-03	    1.000000E+03	    0.000000E+00	    0.000000E+00	    2.318428E+04	    0.000000E+00	    1.000000E+00	    0.000000E+00	    0.000000E+00	
   -2.332942E-02	    1.505890E-02	    0.000000E+00	    0.000000E+00	    1.000000E-03	    1.000000E-03	    1.000000E+03	    0.000000E+00	    0.000000E+00	    1.619534E+04	    0.000000E+00	    1.000000E+00	    0.000000E+00	    0.000000E+00	
   -2.151239E-02	    1.749795E-02	    0.000000E+00	    0.000000E+00	    1.000000E-03	    1.000000E-03	    1.000000E+03	    0.000000E+00	    0.000000E+00	    1.201235E+04	    0.000000E+00	    1.000000E+00	    0.000000E+00	    0.000000E+00	
   -1.939545E-02	    1.976989E-02	    0.000000E+00	    0.000000E+00	    1.000000E-03	    1.000000E-03	    1.000000E+03	    0.000000E+00	    0.000000E+00	    9.426812E+03	    0.000000E+00	    1.000000E+00	    0.000000E+00	    0.000000E+00	
   -1.706402E-02	    2.177496E-02	    0.000000E+00	    0.000000E+00	    1.000000E-03	    1.000000E-03	    1.000000E+03	    0.000000E+00	    0.000000E+00	    7.786631E+03	    0.000000E+00	    1.000000E+00	    0.000000E+00	    0.000000E+00	
   -1.462257E-02	    2.345388E-02	    0.000000E+00	    0.000000E+00	    1.000000E-03	    1.000000E-03	    1.000000E+03	    0.000000E+00	    0.000000E+00	    6.726189E+03	    0.000000E+00	    1.000000E+00	    0.000000E+00	    0.000000E+00	
   -1.217502E-02	    2.478988E-02	    0.000000E+00	    0.000000E+00	    1.000000E-03	    1.000000E-03	    1.000000E+03	    0.000000E+00	    0.000000E+00	    6.033020E+03	    0.000000E+00	    1.000000E+00	    0.000000E+00	    0.000000E+00	
   -9.809349E-03	    2.580092E-02	    0.000000E+00	    0.000000E+00	    1.000000E-03	    1.000000E-03	    1.000000E+03	    0.000000E+00	    0.000000E+00	    5.579238E+03	    0.000000E+00	    1.000000E+00	    0.000000E+00	    0.000000E+00	
   -7.589620E-03	    2.652719E-02	    0.000000E+00	    0.000000E+00	    1.000000E-03	    1.000000E-03	    1.000000E+03	    0.000000E+00	    0.000000E+00	    5.285197E+03	    0.000000E+00	    1.000000E+00	    0.000000E+00	    0.000000E+00	
   -5.555047E-03	    2.701885E-02	    0.000000E+00	    0.000000E+00	    1.000000E-03	    1.000000E-03	    1.000000E+03	    0.000000E+00	    0.000000E+00	    5.099648E+03	    0.000000E+00	    1.000000E+00	    0.000000E+00	    0.000000E+00	
   -3.723551E-03	    2.732673E-02	    0.000000E+00	    0.000000E+00	    1.000000E-03	    1.000000E-03	    1.000000E+03	    0.000000E+00	    0.000000E+00	    4.988595E+03	    0.000000E+00	    1.000000E+00	    0.000000E+00	    0.000000E+00	
   -2.097146E-03	    2.749678E-02	    0.000000E+00	    0.000000E+00	    1.000000E-03	    1.000000E-03	    1.000000E+03	    0.000000E+00	    0.000000E+00	    4.928878E+03	    0.000000E+00	    1.000000E+00	    0.000000E+00	    0.000000E+00	
   -6.673054E-04	    2.756747E-02	    0.000000E+00	    0.000000E+00	    1.000000E-03	    1.000000E-03	    1.000000E+03	    0.000000E+00	    0.000000E+00	    4.904379E+03	    0.000000E+00	    1.000000E+00	    0.000000E+00	    0.000000E+00	
    6.673054E-04	    2.756747E-02	    0.000000E+00	    0.000000E+00	    1.000000E-03	    1.000000E-03	    1.000000E+03	    0.000000E+00	    0.000000E+00	    4.904379E+03	    0.000000E+00	    1.000000E+00	    0.000000E+00	    0.000000E+00	
    2.097146E-03	    2.749678E-02	    0.000000E+00	    0.000000E+00	    1.000000E-03	    1.000000E-03	    1.000000E+03	    0.000000E+00	    0.000000E+00	    4.928878E+03	    0.000000E+00	    1.000000E+00	    0.000000E+00	    0.000000E+00	
    3.723551E-03	    2.732673E-02	    0.000000E+00	    0.000000E+00	    1.000000E-03	    1.000000E-03	    1.000000E+03	    0.000000E+00	    0.000000E+00	    4.988595E+03	    0.000000E+00	    1.000000E+00	    0.000000E+00	    0.000000E+00	
    5.555047E-03	    2.701885E-02	    0.000000E+00	    0.000000E+00	    1.000000E-03	    1.000000E-03	    1.000000E+03	    0.000000E+00	    0.000000E+00	    5.099648E+03	    0.000000E+00	    1.000000E+00	    0.000000E+00	    0.000000E+00	
    7.589620E-03	    2.652719E-02	    0.000000E+00	    0.000000E+00	    1.000000E-03	    1.000000E-03	    1.000000E+03	    0.000000E+00	    0.000000E+00	    5.285197E+03	    0.000000E+00	    1.000000E+00	    0.000000E+00	    0.000000E+00	
    9.809349E-03	    2.580092E-02	    0.000000E+00	    0.000000E+00	    1.000000E-03	    1.000000E-03	    1.000000E+03	    0.000000E+00	    0.000000E+00	    5.579238E+03	    0.000000E+00	    1.000000E+00	    0.000000E+00	    0.000000E+00	
    1.217502E-02	    2.478988E-02	    0.000000E+00	    0.000000E+00	    1.000000E-03	    1.000000E-03	    1.000000E+03	    0.000000E+00	    0.000000E+00	    6.033020E+03	    0.000000E+00	    1.000000E+00	    0.000000E+00	    0.000000E+00	
    1.462257E-02	    2.345388E-02	    0.000000E+00	    0.000000E+00	    1.000000E-03	    1.000000E-03	    1.000000E+03	    0.000000E+00	    0.000000E+00	    6.726189E+03	    0.000000E+00	    1.000000E+00	    0.000000E+00	    0.000000E+00	
    1.706402E-02	    2.177496E-02	    0.000000E+00	    0.000000E+00	    1.000000E-03	    1.000000E-03	    1.000000E+03	    0.000000E+00	    0.000000E+00	    7.786631E+03	    0.000000E+00	    1.000000E+00	    0.000000E+00	    0.000000E+00	
    1.939545E-02	    1.976989E-02	    0.000000E+00	    0.000000E+00	    1.000000E-03	    1.000000E-03	    1.000000E+03	    0.000000E+00	    0.000000E+00	    9.426812E+03	    0.000000E+00	    1.000000E+00	    0.000000E+00	    0.000000E+00	
    2.151239E-02	    1.749795E-02	    0.000000E+00	    0.000000E+00	    1.000000E-03	    1.000000E-03	    1.000000E+03	    0.000000E+00	    0.000000E+00	    1.201235E+04	    0.000000E+00	    1.000000E+00	    0.000000E+00	    0.000000E+00	
    2.332942E-02	    1.505890E-02	    0.000000E+00	    0.000000E+00	    1.000000E-03	    1.000000E-03	    1.000000E+03	    0.000000E+00	    0.000000E+00	    1.619534E+04	    0.000000E+00	    1.000000E+00	    0.000000E+00	    0.000000E+00	
    2.479723E-02	    1.257917E-02	    0.000000E+00	    0.000000E+00	    1.000000E-03	    1.000000E-03	    1.000000E+03	    0.000000E+00	    0.000000E+00	    2.318428E+04	    0.000000E+00	    1.000000E+00	    0.000000E+00	    0.000000E+00	
    2.591020E-02	    1.018965E-02	    0.000000E+00	    0.000000E+00	    1.000000E-03	    1.000000E-03	    1.000000E+03	    0.000000E+00	    0.000000E+00	    3.530364E+04	    0.000000E+00	    1.000000E+00	    0.000000E+00	    0.000000E+00	
    2.670169E-02	    8.002752E-03	    0.000000E+00	    0.000000E+00	    1.000000E-03	    1.000000E-03	    1.000000E+03	    0.000000E+00	    0.000000E+00	    5.719817E+04	    0.000000E+00	    1.000000E+00	    0.000000E+00	    0.000000E+00	
    2.723007E-02	    6.096414E-03	    0.000000E+00	    0.000000E+00	    1.000000E-03	    1.000000E-03	    1.000000E+03	    0.000000E+00	    0.000000E+00	    9.851320E+04	    0.000000E+00	    1.000000E+00	    0.000000E+00	    0.000000E+00	
    2.756201E-02	    4.508521E-03	    0.000000E+00	    0.000000E+00	    1.000000E-03	    1.000000E-03	    1.000000E+03	    0.000000E+00	    0.000000E+00	    1.800541E+05	    0.000000E+00	    1.000000E+00	    0.000000E+00	    0.000000E+00	
    2.775907E-02	    3.240680E-03	    0.000000E+00	    0.000000E+00	    1.000000E-03	    1.000000E-03	    1.000000E+03	    0.000000E+00	    0.000000E+00	    3.483891E+05	    0.000000E+00	    1.000000E+00	    0.000000E+00	    0.000000E+00	
    2.787028E-02	    2.267492E-03	    0.000000E+00	    0.000000E+00	    1.000000E-03	    1.000000E-03	    1.000000E+03	    0.000000E+00	    0.000000E+00	    7.114483E+05	    0.000000E+00	    1.000000E+00	    0.000000E+00	    0.000000E+00	
    2.793047E-02	    1.547403E-03	    0.000000E+00	    0.000000E+00	    1.000000E-03	    1.000000E-03	    1.000000E+03	    0.000000E+00	    0.000000E+00	    1.527399E+06	    0.000000E+00	    1.000000E+00	    0.000000E+00	    0.000000E+00	
    2.796207E-02	    1.032438E-03	    0.000000E+00	    0.000000E+00	    1.000000E-03	    1.000000E-03	    1.000000E+03	    0.000000E+00	    0.000000E+00	    3.430659E+06	    0.000000E+00	    1.000000E+00	    0.000000E+00	    0.000000E+00	
    2.797838E-02	    6.755022E-04	    0.000000E+00	    0.000000E+00	    1.000000E-03	    1.000000E-03	    1.000000E+03	    0.000000E+00	    0.000000E+00	    8.013360E+06	    0.000000E+00	    1.000000E+00	    0.000000E+00	    0.000000E+00	
    2.798680E-02	    4.349551E-04	    0.000000E+00	    0.000000E+00	    1.000000E-03	    1.000000E-03	    1.000000E+03	    0.000000E+00	    0.000000E+00	    1.932655E+07	    0.000000E+00	    1.000000E+00	    0.000000E+00	    0.000000E+00	
    2.799122E-02	    2.767608E-04	    0.000000E+00	    0.000000E+00	    1.000000E-03	    1.000000E-03	    1.000000E+03	    0.000000E+00	    0.000000E+00	    4.773286E+07	    0.000000E+00	    1.000000E+00	    0.000000E+00	    0.000000E+00	
    2.799358E-02	    1.748174E-04	    0.000000E+00	    0.000000E+00	    1.000000E-03	    1.000000E-03	    1.000000E+03	    0.000000E+00	    0.000000E+00	    1.196317E+08	    0.000000E+00	    1.000000E+00	    0.000000E+00	    0.000000E+00	
    2.799433E-02	    1.387669E-04	    0.000000E+00	    0.000000E+00	    1.000000E-03	    1.000000E-03	    1.000000E+03	    0.000000E+00	    0.000000E+00	    0.000000E+00	    0.000000E+00	    1.000000E+00	    0.000000E+00	    0.000000E+00	
   -2.799340E-02	    1.387450E-04	    0.000000E+00	    0.000000E+00	    1.000000E-03	    1.000000E-03	    1.000000E+03	    0.000000E+00	    0.000000E+00	    0.000000E+00	    0.000000E+00	    1.000000E+00	    0.000000E+00	    0.000000E+00	
   -2.799241E-02	    1.747882E-04	    4.903020E-04	   -1.000000E+00	    1.640000E-03	    1.640000E-03	    7.900000E+02	    1.334832E-13	    2.021370E-08	    1.196317E+08	    1.122600E+05	    1.000000E+00	    1.178230E-06	    1.100137E+02	
   -2.798935E-02	    2.767078E-04	    1.184049E-03	   -1.000000E+00	    1.640000E-03	    1.640000E-03	    7.900000E+02	    7.611311E-13	    4.598856E-08	    4.773286E+07	    2.610151E+05	    1.000000E+00	    1.865283E-06	    1.598917E+02	
   -2.798387E-02	    4.348552E-04	    2.095631E-03	   -1.000000E+00	    1.640000E-03	    1.640000E-03	    7.900000E+02	    5.913268E-12	    1.446621E-07	    1.932655E+07	    3.310139E+05	    1.000000E+00	    2.931408E-06	    2.032171E+02	
   -2.797383E-02	    6.753081E-04	    3.372293E-03	   -1.000000E+00	    1.640000E-03	    1.640000E-03	    7.900000E+02	    3.727921E-11	    3.781415E-07	    8.013360E+06	    3.553707E+05	    1.000000E+00	    4.552459E-06	    2.192204E+02	
   -2.795512E-02	    1.032053E-03	    5.165277E-03	   -1.000000E+00	    1.640000E-03	    1.640000E-03	    7.900000E+02	    2.073107E-10	    9.002686E-07	    3.430659E+06	    3.568728E+05	    1.000000E+00	    6.957682E-06	    2.218049E+02	
   -2.792007E-02	    1.546634E-03	    7.642891E-03	   -1.000000E+00	    1.640000E-03	    1.640000E-03	    7.900000E+02	    1.042131E-09	    2.014873E-06	    1.527399E+06	    3.477875E+05	    1.000000E+00	    1.042743E-05	    2.185989E+02	
   -2.785508E-02	    2.265972E-03	    1.101172E-02	   -1.000000E+00	    1.640001E-03	    1.640000E-03	    7.900000E+02	    4.795280E-09	    4.318473E-06	    7.114483E+05	    3.361646E+05	    1.000000E+00	    1.527854E-05	    2.147719E+02	
   -2.773743E-02	    3.237750E-03	    1.546916E-02	   -1.000000E+00	    1.640004E-03	    1.640000E-03	    7.900000E+02	    2.019432E-08	    8.905675E-06	    3.483891E+05	    3.247036E+05	    1.000000E+00	    2.183340E-05	    2.121671E+02	
   -2.753214E-02	    4.503071E-03	    2.117143E-02	   -1.000000E+00	    1.640014E-03	    1.640000E-03	    7.900000E+02	    7.748296E-08	    1.765965E-05	    1.800541E+05	    3.141198E+05	    1.000000E+00	    3.037058E-05	    2.113273E+02	
   -2.719017E-02	    6.086721E-03	    2.820062E-02	   -1.000000E+00	    1.640048E-03	    1.640000E-03	    7.900000E+02	    2.694366E-07	    3.359882E-05	    9.851320E+04	    3.046149E+05	    1.000000E+00	    4.105921E-05	    2.124321E+02	
   -2.665035E-02	    7.986369E-03	    3.641456E-02	   -1.000000E+00	    1.640151E-03	    1.640000E-03	    7.900000E+02	    8.361778E-07	    6.054157E-05	    5.719817E+04	    2.943405E+05	    1.000000E+00	    5.388601E-05	    2.137817E+02	
   -2.584680E-02	    1.016345E-02	    4.576573E-02	   -1.000000E+00	    1.640419E-03	    1.640000E-03	    7.900000E+02	    2.329283E-06	    1.040913E-04	    3.530364E+04	    2.858365E+05	    1.000000E+00	    6.859332E-05	    2.174226E+02	
   -2.472237E-02	    1.253964E-02	    5.571841E-02	   -1.000000E+00	    1.641027E-03	    1.640000E-03	    7.900000E+02	    5.707300E-06	    1.674932E-04	    2.318428E+04	    2.759764E+05	    1.000000E+00	    8.465453E-05	    2.204538E+02	
   -2.324516E-02	    1.500264E-02	    6.605732E-02	   -1.000000E+00	    1.642236E-03	    1.640000E-03	    7.900000E+02	    1.242480E-05	    2.547137E-04	    1.619534E+04	    2.669829E+05	    1.000000E+00	    1.013123E-04	    2.250314E+02	
   -2.142217E-02	    1.742239E-02	    7.606979E-02	   -1.000000E+00	    1.644276E-03	    1.640000E-03	    7.900000E+02	    2.375356E-05	    3.611849E-04	    1.201235E+04	    2.570139E+05	    1.000000E+00	    1.176872E-04	    2.286859E+02	
   -1.930359E-02	    1.967380E-02	    8.512448E-02	   -1.000000E+00	    1.647207E-03	    1.640000E-03	    7.900000E+02	    4.003620E-05	    4.777388E-04	    9.426812E+03	    2.462021E+05	    1.000000E+00	    1.329315E-04	    2.306824E+02	
   -1.697505E-02	    2.165872E-02	    9.313553E-02	   -1.000000E+00	    1.650949E-03	    1.640000E-03	    7.900000E+02	    6.082569E-05	    5.995281E-04	    7.786631E+03	    2.370101E+05	    1.000000E+00	    1.463783E-04	    2.331779E+02	
   -1.454048E-02	    2.331930E-02	    9.986137E-02	   -1.000000E+00	    1.655115E-03	    1.640000E-03	    7.900000E+02	    8.397185E-05	    7.149500E-04	    6.726189E+03	    2.295966E+05	    1.000000E+00	    1.576329E-04	    2.354303E+02	
   -1.210280E-02	    2.463976E-02	    1.052267E-01	   -1.000000E+00	    1.659209E-03	    1.640000E-03	    7.900000E+02	    1.067165E-04	    8.149657E-04	    6.033020E+03	    2.239235E+05	    1.000000E+00	    1.665855E-04	    2.371602E+02	
   -9.748807E-03	    2.563848E-02	    1.092907E-01	   -1.000000E+00	    1.662810E-03	    1.640000E-03	    7.900000E+02	    1.267215E-04	    8.949486E-04	    5.579238E+03	    2.197661E+05	    1.000000E+00	    1.733586E-04	    2.383483E+02	
   -7.541467E-03	    2.635559E-02	    1.122081E-01	   -1.000000E+00	    1.665678E-03	    1.640000E-03	    7.900000E+02	    1.426561E-04	    9.543867E-04	    5.285197E+03	    2.168459E+05	    1.000000E+00	    1.782230E-04	    2.391001E+02	
   -5.519154E-03	    2.684091E-02	    1.141807E-01	   -1.000000E+00	    1.667758E-03	    1.640000E-03	    7.900000E+02	    1.542087E-04	    9.954555E-04	    5.099648E+03	    2.148982E+05	    1.000000E+00	    1.815155E-04	    2.395504E+02	
   -3.699220E-03	    2.714478E-02	    1.154143E-01	   -1.000000E+00	    1.669117E-03	    1.640000E-03	    7.900000E+02	    1.617624E-04	    1.021477E-03	    4.988595E+03	    2.136887E+05	    1.000000E+00	    1.835772E-04	    2.398045E+02	
   -2.083358E-03	    2.731258E-02	    1.160940E-01	   -1.000000E+00	    1.669887E-03	    1.640000E-03	    7.900000E+02	    1.660381E-04	    1.035926E-03	    4.928878E+03	    2.130209E+05	    1.000000E+00	    1.847157E-04	    2.399313E+02	
   -6.629067E-04	    2.738233E-02	    1.163741E-01	   -1.000000E+00	    1.670210E-03	    1.640000E-03	    7.900000E+02	    1.678315E-04	    1.041910E-03	    4.904379E+03	    2.127366E+05	    1.000000E+00	    1.851891E-04	    2.399725E+02	
    6.629067E-04	    2.738233E-02	    1.163741E-01	   -1.000000E+00	    1.670210E-03	    1.640000E-03	    7.900000E+02	    1.678315E-04	    1.041910E-03	    4.904379E+03	    2.127366E+05	    1.000000E+00	    1.851891E-04	    2.399725E+02	
    2.083358E-03	    2.731258E-02	    1.160940E-01	   -1.000000E+00	    1.669887E-03	    1.640000E-03	    7.900000E+02	    1.660381E-04	    1.035926E-03	    4.928878E+03	    2.130209E+05	    1.000000E+00	    1.847157E-04	    2.399313E+02	
    3.699220E-03	    2.714478E-02	    1.154143E-01	   -1.000000E+00	    1.669117E-03	    1.640000E-03	    7.900000E+02	    1.617624E-04	    1.021477E-03	    4.988595E+03	    2.136887E+05	    1.000000E+00	    1.835772E-04	    2.398045E+02	
    5.519154E-03	    2.684091E-02	    1.141807E-01	   -1.000000E+00	    1.667758E-03	    1.640000E-03	    7.900000E+02	    1.542087E-04	    9.954555E-04	    5.099648E+03	    2.148982E+05	    1.000000E+00	    1.815155E-04	    2.395504E+02	
    7.541467E-03	    2.635559E-02	    1.122081E-01	   -1.000000E+00	    1.665678E-03	    1.640000E-03	    7.900000E+02	    1.426561E-04	    9.543867E-04	    5.285197E+03	    2.168459E+05	    1.000000E+00	    1.782230E-04	    2.391001E+02	
    9.748807E-03	    2.563848E-02	    1.092907E-01	   -1.000000E+00	    1.662810E-03	    1.640000E-03	    7.900000E+02	    1.267215E-04	    8.949486E-04	    5.579238E+03	    2.197661E+05	    1.000000E+00	    1.733586E-04	    2.383483E+02	
    1.210280E-02	    2.463976E-02	    1.052267E-01	   -1.000000E+00	    1.659209E-03	    1.640000E-03	    7.900000E+02	    1.067165E-04	    8.149657E-04	    6.033020E+03	    2.239235E+05	    1.000000E+00	    1.665855E-04	    2.371602E+02	
    1.454048E-02	    2.331930E-02	    9.986137E-02	   -1.000000E+00	    1.655115E-03	    1.640000E-03	    7.900000E+02	    8.397185E-05	    7.149500E-04	    6.726189E+03	    2.295966E+05	    1.000000E+00	    1.576329E-04	    2.354303E+02	
    1.697505E-02	    2.165872E-02	    9.313553E-02	   -1.000000E+00	    1.650949E-03	    1.640000E-03	    7.900000E+02	    6.082569E-05	    5.995281E-04	    7.786631E+03	    2.370101E+05	    1.000000E+00	    1.463783E-04	    2.331779E+02	
    1.930359E-02	    1.967380E-02	    8.512448E-02	   -1.000000E+00	    1.647207E-03	    1.640000E-03	    7.900000E+02	    4.003620E-05	    4.777388E-04	    9.426812E+03	    2.462021E+05	    1.000000E+00	    1.329315E-04	    2.306824E+02	
    2.142217E-02	    1.742239E-02	    7.606979E-02	   -1.000000E+00	    1.644276E-03	    1.640000E-03	    7.900000E+02	    2.375356E-05	    3.611849E-04	    1.201235E+04	    2.570139E+05	    1.000000E+00	    1.176872E-04	    2.286859E+02	
    2.324516E-02	    1.500264E-02	    6.605732E-02	   -1.000000E+00	    1.642236E-03	    1.640000E-03	    7.900000E+02	    1.242480E-05	    2.547137E-04	    1.619534E+04	    2.669829E+05	    1.000000E+00	    1.013123E-04	    2.250314E+02	
    2.472237E-02	    1.253964E-02	    5.571841E-02	   -1.000000E+00	    1.641027E-03	    1.640000E-03	    7.900000E+02	    5.707300E-06	    1.674932E-04	    2.318428E+04	    2.759764E+05	    1.000000E+00	    8.465453E-05	    2.204538E+02	
    2.584680E-02	    1.016345E-02	    4.576573E-02	   -1.000000E+00	    1.640419E-03	    1.640000E-03	    7.900000E+02	    2.329283E-06	    1.040913E-04	    3.530364E+04	    2.858365E+05	    1.000000E+00	    6.859332E-05	    2.174226E+02	
    2.665035E-02	    7.986369E-03	    3.641456E-02	   -1.000000E+00	    1.640151E-03	    1.640000E-03	    7.900000E+02	    8.361778E-07	    6.054157E-05	    5.719817E+04	    2.943405E+05	    1.000000E+00	    5.388601E-05	    2.137817E+02	
    2.719017E-02	    6.086721E-03	    2.820062E-02	   -1.000000E+00	    1.640048E-03	    1.640000E-03	    7.900000E+02	    2.694366E-07	    3.359882E-05	    9.851320E+04	    3.046149E+05	    1.000000E+00	    4.105921E-05	    2.124321E+02	
    2.753214E-02	    4.503071E-03	    2.117143E-02	   -1.000000E+00	    1.640014E-03	    1.640000E-03	    7.900000E+02	    7.748296E-08	    1.765965E-05	    1.800541E+05	    3.141198E+05	    1.000000E+00	    3.037058E-05	    2.113273E+02	
    2.773743E-02	    3.237750E-03	    1.546916E-02	   -1.000000E+00	    1.640004E-03	    1.640000E-03	    7.900000E+02	    2.019432E-08	    8.905675E-06	    3.483891E+05	    3.247036E+05	    1.000000E+00	    2.183340E-05	    2.121671E+02	
    2.785508E-02	    2.265972E-03	    1.101172E-02	   -1.000000E+00	    1.640001E-03	    1.640000E-03	    7.900000E+02	    4.795280E-09	    4.318473E-06	    7.114483E+05	    3.361646E+05	    1.000000E+00	    1.527854E-05	    2.147719E+02	
    2.792007E-02	    1.546634E-03	    7.642891E-03	   -1.000000E+00	    1.640000E-03	    1.640000E-03	    7.900000E+02	    1.042131E-09	    2.014873E-06	    1.527399E+06	    3.477875E+05	    1.000000E+00	    1.042743E-05	    2.185989E+02	
    2.795512E-02	    1.032053E-03	    5.165277E-03	   -1.000000E+00	    1.640000E-03	    1.640000E-03	    7.900000E+02	    2.073107E-10	    9.002686E-07	    3.430659E+06	    3.568728E+05	    1.000000E+00	    6.957682E-06	    2.218049E+02	
    2.797383E-02	    6.753081E-04	    3.372293E-03	   -1.000000E+00	    1.640000E-03	    1.640000E-03	    7.900000E+02	    3.727921E-11	    3.781415E-07	    8.013360E+06	    3.553707E+05	    1.000000E+00	    4.552459E-06	    2.192204E+02	
    2.798387E-02	    4.348552E-04	    2.095631E-03	   -1.000000E+00	    1.640000E-03	    1.640000E-03	    7.900000E+02	    5.913268E-12	    1.446621E-07	    1.932655E+07	    3.310139E+05	    1.000000E+00	    2.931408E-06	    2.032171E+02	
    2.798935E-02	    2.767078E-04	    1.184049E-03	   -1.000000E+00	    1.640000E-03	    1.640000E-03	    7.900000E+02	    7.611311E-13	    4.598856E-08	    4.773286E+07	    2.610151E+05	    1.000000E+00	    1.865283E-06	    1.598917E+02	
    2.799241E-02	    1.747882E-04	    4.903020E-04	   -1.000000E+00	    1.640000E-03	    1.640000E-03	    7.900000E+02	    1.334832E-13	    2.021370E-08	    1.196317E+08	    1.122600E+05	    1.000000E+00	    1.178230E-06	    1.100137E+02	
    2.799340E-02	    1.387450E-04	    0.000000E+00	    0.000000E+00	    1.000000E-03	    1.000000E-03	    1.000000E+03	    0.000000E+00	    0.000000E+00	    1.277630E+05	    0.000000E+00	    1.000000E+00	    0.000000E+00	    0.000000E+00	
   -2.799123E-02	    1.386700E-04	    0.000000E+00	    0.000000E+00	    1.000000E-03	    1.000000E-03	    1.000000E+03	    0.000000E+00	    0.000000E+00	    1.277630E+05	    0.000000E+00	    1.000000E+00	    0.000000E+00	    0.000000E+00	
   -2.798968E-02	    1.746903E-04	    1.181928E-03	   -1.000000E+00	    1.640000E-03	    1.640000E-03	    7.900000E+02	    1.624917E-09	    2.627902E-07	    1.277630E+05	    6.492093E+04	    1.000000E+00	    3.904821E-06	    1.021209E+00	
   -2.798504E-02	    2.765370E-04	    2.854269E-03	   -1.000000E+00	    1.640000E-03	    1.640000E-03	    7.900000E+02	    1.003179E-12	    8.449146E-09	    6.653674E+06	    1.498599E+05	    1.101056E-02	    6.181634E-06	    1.503362E-07	
   -2.797710E-02	    4.345485E-04	    5.051393E-03	   -1.000000E+00	    1.640000E-03	    1.640000E-03	    7.900000E+02	    1.038798E-11	    3.697746E-08	    2.812116E+06	    1.899249E+05	    1.000000E+00	    9.714395E-06	    1.972935E-06	
   -2.796332E-02	    6.747414E-04	    8.127796E-03	   -1.000000E+00	    1.640000E-03	    1.640000E-03	    7.900000E+02	    1.063978E-10	    1.570607E-07	    1.166170E+06	    2.038223E+05	    1.000000E+00	    1.508539E-05	    2.168625E-05	
   -2.793906E-02	    1.030982E-03	    1.244694E-02	   -1.000000E+00	    1.640000E-03	    1.640000E-03	    7.900000E+02	    9.451224E-10	    5.974192E-07	    4.993651E+05	    2.045900E+05	    1.000000E+00	    2.305324E-05	    1.933626E-04	
   -2.789604E-02	    1.544586E-03	    1.841226E-02	   -1.000000E+00	    1.640001E-03	    1.640000E-03	    7.900000E+02	    7.382686E-09	    2.078330E-06	    2.223962E+05	    1.992467E+05	    1.000000E+00	    3.454476E-05	    1.470976E-03	
   -2.781997E-02	    2.262067E-03	    2.651751E-02	   -1.000000E+00	    1.640009E-03	    1.640000E-03	    7.900000E+02	    5.133053E-08	    6.733634E-06	    1.036337E+05	    1.923916E+05	    1.000000E+00	    5.060577E-05	    9.875560E-03	
   -2.768750E-02	    3.230424E-03	    3.723101E-02	   -1.000000E+00	    1.640057E-03	    1.640000E-03	    7.900000E+02	    3.147688E-07	    2.023065E-05	    5.077446E+04	    1.854970E+05	    1.000000E+00	    7.229733E-05	    5.838865E-02	
   -2.746325E-02	    4.489724E-03	    5.091645E-02	   -1.000000E+00	    1.640303E-03	    1.640000E-03	    7.900000E+02	    1.684612E-06	    5.598177E-05	    2.625269E+04	    1.786688E+05	    1.000000E+00	    1.005313E-04	    3.009876E-01	
   -2.709830E-02	    6.063345E-03	    6.774765E-02	   -1.000000E+00	    1.641408E-03	    1.640000E-03	    7.900000E+02	    7.821880E-06	    1.421890E-04	    1.436091E+04	    1.709755E+05	    1.000000E+00	    1.358525E-04	    1.337350E+00	
   -2.653233E-02	    7.947317E-03	    8.732449E-02	   -1.000000E+00	    1.645532E-03	    1.640000E-03	    7.900000E+02	    3.073576E-05	    3.238581E-04	    8.324112E+03	    1.593577E+05	    1.000000E+00	    1.781986E-04	    4.897981E+00	
   -2.570131E-02	    1.010156E-02	    1.093823E-01	   -1.000000E+00	    1.658635E-03	    1.640000E-03	    7.900000E+02	    1.035304E-04	    6.714216E-04	    5.123358E+03	    1.441635E+05	    1.000000E+00	    2.266983E-04	    1.492530E+01	
   -2.455090E-02	    1.244689E-02	    1.322987E-01	   -1.000000E+00	    1.691563E-03	    1.640000E-03	    7.900000E+02	    2.864628E-04	    1.220111E-03	    3.364792E+03	    1.260316E+05	    1.000000E+00	    2.795960E-04	    3.610336E+01	
   -2.305253E-02	    1.487143E-02	    1.550407E-01	   -1.000000E+00	    1.758028E-03	    1.640000E-03	    7.900000E+02	    6.557136E-04	    1.967366E-03	    2.370272E+03	    1.087764E+05	    1.000000E+00	    3.343855E-04	    7.132615E+01	
   -2.121629E-02	    1.724695E-02	    1.755976E-01	   -1.000000E+00	    1.860820E-03	    1.640000E-03	    7.900000E+02	    1.226777E-03	    2.784486E-03	    1.793109E+03	    9.412777E+04	    1.000000E+00	    3.881720E-04	    1.154738E+02	
   -1.909436E-02	    1.945154E-02	    1.926936E-01	   -1.000000E+00	    1.988930E-03	    1.640000E-03	    7.900000E+02	    1.938500E-03	    3.550850E-03	    1.447083E+03	    8.248269E+04	    1.000000E+00	    4.381810E-04	    1.598927E+02	
   -1.677271E-02	    2.139064E-02	    2.065756E-01	   -1.000000E+00	    2.130388E-03	    1.640000E-03	    7.900000E+02	    2.724378E-03	    4.248099E-03	    1.231840E+03	    7.322240E+04	    1.000000E+00	    4.822419E-04	    1.994855E+02	
   -1.435405E-02	    2.300964E-02	    2.173764E-01	   -1.000000E+00	    2.267528E-03	    1.640000E-03	    7.900000E+02	    3.486267E-03	    4.827942E-03	    1.094028E+03	    6.618405E+04	    1.000000E+00	    5.190828E-04	    2.307353E+02	
   -1.193896E-02	    2.429493E-02	    2.254871E-01	   -1.000000E+00	    2.387418E-03	    1.640000E-03	    7.900000E+02	    4.152320E-03	    5.277747E-03	    1.004118E+03	    6.104742E+04	    1.000000E+00	    5.483646E-04	    2.534884E+02	