Title="Fields"
Variables="X""Y""Velocity""Phi""Effective Viscosity""Dynamic Viscosity""Density""Eddy Viscosity""K""Omega""S""F1SST""distance""GEN"
Zone I=82 J=82 F=POINT
   -2.799899E-02	    1.388051E-04	    0.000000E+00	   -1.000000E+00	    1.640000E-03	    1.640000E-03	    7.900000E+02	    0.000000E+00	    0.000000E+00	    3.991728E+08	    0.000000E+00	    1.000000E+00	    0.000000E+00	    0.000000E+00	
   -2.799880E-02	    1.603853E-04	    0.000000E+00	   -1.000000E+00	    1.640000E-03	    1.640000E-03	    7.900000E+02	    0.000000E+00	    0.000000E+00	    3.991728E+08	    0.000000E+00	    1.000000E+00	    0.000000E+00	    0.000000E+00	
   -2.799825E-02	    2.140027E-04	    0.000000E+00	   -1.000000E+00	    1.640000E-03	    1.640000E-03	    7.900000E+02	    0.000000E+00	    0.000000E+00	    2.242101E+08	    0.000000E+00	    1.000000E+00	    0.000000E+00	    0.000000E+00	
   -2.799736E-02	    2.850284E-04	    0.000000E+00	   -1.000000E+00	    1.640000E-03	    1.640000E-03	    7.900000E+02	    0.000000E+00	    0.000000E+00	    1.263926E+08	    0.000000E+00	    1.000000E+00	    0.000000E+00	    0.000000E+00	
   -2.799593E-02	    3.784968E-04	    0.000000E+00	   -1.000000E+00	    1.640000E-03	    1.640000E-03	    7.900000E+02	    0.000000E+00	    0.000000E+00	    7.167694E+07	    0.000000E+00	    1.000000E+00	    0.000000E+00	    0.000000E+00	
   -2.799358E-02	    5.005555E-04	    0.000000E+00	   -1.000000E+00	    1.640000E-03	    1.640000E-03	    7.900000E+02	    0.000000E+00	    0.000000E+00	    4.098331E+07	    0.000000E+00	    1.000000E+00	    0.000000E+00	    0.000000E+00	
   -2.798975E-02	    6.585608E-04	    0.000000E+00	   -1.000000E+00	    1.640000E-03	    1.640000E-03	    7.900000E+02	    0.000000E+00	    0.000000E+00	    2.367716E+07	    0.000000E+00	    1.000000E+00	    0.000000E+00	    0.000000E+00	
   -2.798353E-02	    8.611186E-04	    0.000000E+00	   -1.000000E+00	    1.640000E-03	    1.640000E-03	    7.900000E+02	    0.000000E+00	    0.000000E+00	    1.384867E+07	    0.000000E+00	    1.000000E+00	    0.000000E+00	    0.000000E+00	
   -2.797353E-02	    1.118047E-03	    0.000000E+00	   -1.000000E+00	    1.640000E-03	    1.640000E-03	    7.900000E+02	    0.000000E+00	    0.000000E+00	    8.215425E+06	    0.000000E+00	    1.000000E+00	    0.000000E+00	    0.000000E+00	
   -2.795765E-02	    1.440230E-03	    0.000000E+00	   -1.000000E+00	    1.640000E-03	    1.640000E-03	    7.900000E+02	    0.000000E+00	    0.000000E+00	    4.951151E+06	    0.000000E+00	    1.000000E+00	    0.000000E+00	    0.000000E+00	
   -2.793282E-02	    1.839347E-03	    0.000000E+00	   -1.000000E+00	    1.640000E-03	    1.640000E-03	    7.900000E+02	    0.000000E+00	    0.000000E+00	    3.035762E+06	    0.000000E+00	    1.000000E+00	    0.000000E+00	    0.000000E+00	
   -2.789465E-02	    2.327438E-03	    0.000000E+00	   -1.000000E+00	    1.640000E-03	    1.640000E-03	    7.900000E+02	    0.000000E+00	    0.000000E+00	    1.896134E+06	    0.000000E+00	    1.000000E+00	    0.000000E+00	    0.000000E+00	
   -2.783715E-02	    2.916317E-03	    0.000000E+00	   -1.000000E+00	    1.640000E-03	    1.640000E-03	    7.900000E+02	    0.000000E+00	    0.000000E+00	    1.207793E+06	    0.000000E+00	    1.000000E+00	    0.000000E+00	    0.000000E+00	
   -2.775233E-02	    3.616803E-03	    0.000000E+00	   -1.000000E+00	    1.640000E-03	    1.640000E-03	    7.900000E+02	    0.000000E+00	    0.000000E+00	    7.853369E+05	    0.000000E+00	    1.000000E+00	    0.000000E+00	    0.000000E+00	
   -2.762999E-02	    4.437808E-03	    0.000000E+00	   -1.000000E+00	    1.640000E-03	    1.640000E-03	    7.900000E+02	    0.000000E+00	    0.000000E+00	    5.216991E+05	    0.000000E+00	    1.000000E+00	    0.000000E+00	    0.000000E+00	
   -2.745762E-02	    5.385299E-03	    0.000000E+00	   -1.000000E+00	    1.640000E-03	    1.640000E-03	    7.900000E+02	    0.000000E+00	    0.000000E+00	    3.543209E+05	    0.000000E+00	    1.000000E+00	    0.000000E+00	    0.000000E+00	
   -2.722061E-02	    6.461222E-03	    0.000000E+00	   -1.000000E+00	    1.640000E-03	    1.640000E-03	    7.900000E+02	    0.000000E+00	    0.000000E+00	    2.461810E+05	    0.000000E+00	    1.000000E+00	    0.000000E+00	    0.000000E+00	
   -2.690274E-02	    7.662479E-03	    0.000000E+00	   -1.000000E+00	    1.640000E-03	    1.640000E-03	    7.900000E+02	    0.000000E+00	    0.000000E+00	    1.750736E+05	    0.000000E+00	    1.000000E+00	    0.000000E+00	    0.000000E+00	
   -2.648711E-02	    8.980112E-03	    0.000000E+00	   -1.000000E+00	    1.640000E-03	    1.640000E-03	    7.900000E+02	    0.000000E+00	    0.000000E+00	    1.274909E+05	    0.000000E+00	    1.000000E+00	    0.000000E+00	    0.000000E+00	
   -2.595751E-02	    1.039885E-02	    0.000000E+00	   -1.000000E+00	    1.640000E-03	    1.640000E-03	    7.900000E+02	    0.000000E+00	    0.000000E+00	    9.509610E+04	    0.000000E+00	    1.000000E+00	    0.000000E+00	    0.000000E+00	
   -2.529995E-02	    1.189722E-02	    0.000000E+00	   -1.000000E+00	    1.640000E-03	    1.640000E-03	    7.900000E+02	    0.000000E+00	    0.000000E+00	    7.266751E+04	    0.000000E+00	    1.000000E+00	    0.000000E+00	    0.000000E+00	
   -2.450445E-02	    1.344825E-02	    0.000000E+00	   -1.000000E+00	    1.640000E-03	    1.640000E-03	    7.900000E+02	    0.000000E+00	    0.000000E+00	    5.688566E+04	    0.000000E+00	    1.000000E+00	    0.000000E+00	    0.000000E+00	
   -2.356655E-02	    1.502097E-02	    0.000000E+00	   -1.000000E+00	    1.640000E-03	    1.640000E-03	    7.900000E+02	    0.000000E+00	    0.000000E+00	    4.560864E+04	    0.000000E+00	    1.000000E+00	    0.000000E+00	    0.000000E+00	
   -2.248839E-02	    1.658235E-02	    0.000000E+00	   -1.000000E+00	    1.640000E-03	    1.640000E-03	    7.900000E+02	    0.000000E+00	    0.000000E+00	    3.743378E+04	    0.000000E+00	    1.000000E+00	    0.000000E+00	    0.000000E+00	
   -2.127915E-02	    1.809970E-02	    0.000000E+00	   -1.000000E+00	    1.640000E-03	    1.640000E-03	    7.900000E+02	    0.000000E+00	    0.000000E+00	    3.142886E+04	    0.000000E+00	    1.000000E+00	    0.000000E+00	    0.000000E+00	
   -1.995457E-02	    1.954304E-02	    0.000000E+00	   -1.000000E+00	    1.640000E-03	    1.640000E-03	    7.900000E+02	    0.000000E+00	    0.000000E+00	    2.696525E+04	    0.000000E+00	    1.000000E+00	    0.000000E+00	    0.000000E+00	
   -1.853586E-02	    2.088710E-02	    0.000000E+00	   -1.000000E+00	    1.640000E-03	    1.640000E-03	    7.900000E+02	    0.000000E+00	    0.000000E+00	    2.361286E+04	    0.000000E+00	    1.000000E+00	    0.000000E+00	    0.000000E+00	
   -1.704790E-02	    2.211278E-02	    0.000000E+00	   -1.000000E+00	    1.640000E-03	    1.640000E-03	    7.900000E+02	    0.000000E+00	    0.000000E+00	    2.107326E+04	    0.000000E+00	    1.000000E+00	    0.000000E+00	    0.000000E+00	
   -1.551729E-02	    2.320780E-02	    0.000000E+00	   -1.000000E+00	    1.640000E-03	    1.640000E-03	    7.900000E+02	    0.000000E+00	    0.000000E+00	    1.913634E+04	    0.000000E+00	    1.000000E+00	    0.000000E+00	    0.000000E+00	
   -1.397041E-02	    2.416663E-02	    0.000000E+00	   -1.000000E+00	    1.640000E-03	    1.640000E-03	    7.900000E+02	    0.000000E+00	    0.000000E+00	    1.765210E+04	    0.000000E+00	    1.000000E+00	    0.000000E+00	    0.000000E+00	
   -1.243173E-02	    2.498974E-02	    0.000000E+00	   -1.000000E+00	    1.640000E-03	    1.640000E-03	    7.900000E+02	    0.000000E+00	    0.000000E+00	    1.651192E+04	    0.000000E+00	    1.000000E+00	    0.000000E+00	    0.000000E+00	
   -1.092267E-02	    2.568255E-02	    0.000000E+00	   -1.000000E+00	    1.640000E-03	    1.640000E-03	    7.900000E+02	    0.000000E+00	    0.000000E+00	    1.563605E+04	    0.000000E+00	    1.000000E+00	    0.000000E+00	    0.000000E+00	
   -9.460882E-03	    2.625407E-02	    0.000000E+00	   -1.000000E+00	    1.640000E-03	    1.640000E-03	    7.900000E+02	    0.000000E+00	    0.000000E+00	    1.496514E+04	    0.000000E+00	    1.000000E+00	    0.000000E+00	    0.000000E+00	
   -8.060042E-03	    2.671570E-02	    0.000000E+00	   -1.000000E+00	    1.640000E-03	    1.640000E-03	    7.900000E+02	    0.000000E+00	    0.000000E+00	    1.445442E+04	    0.000000E+00	    1.000000E+00	    0.000000E+00	    0.000000E+00	
   -6.729961E-03	    2.708004E-02	    0.000000E+00	   -1.000000E+00	    1.640000E-03	    1.640000E-03	    7.900000E+02	    0.000000E+00	    0.000000E+00	    1.406966E+04	    0.000000E+00	    1.000000E+00	    0.000000E+00	    0.000000E+00	
   -5.476959E-03	    2.735997E-02	    0.000000E+00	   -1.000000E+00	    1.640000E-03	    1.640000E-03	    7.900000E+02	    0.000000E+00	    0.000000E+00	    1.378443E+04	    0.000000E+00	    1.000000E+00	    0.000000E+00	    0.000000E+00	
   -4.304375E-03	    2.756803E-02	    0.000000E+00	   -1.000000E+00	    1.640000E-03	    1.640000E-03	    7.900000E+02	    0.000000E+00	    0.000000E+00	    1.357806E+04	    0.000000E+00	    1.000000E+00	    0.000000E+00	    0.000000E+00	
   -3.213118E-03	    2.771589E-02	    0.000000E+00	   -1.000000E+00	    1.640000E-03	    1.640000E-03	    7.900000E+02	    0.000000E+00	    0.000000E+00	    1.343422E+04	    0.000000E+00	    1.000000E+00	    0.000000E+00	    0.000000E+00	
   -2.202212E-03	    2.781412E-02	    0.000000E+00	   -1.000000E+00	    1.640000E-03	    1.640000E-03	    7.900000E+02	    0.000000E+00	    0.000000E+00	    1.333992E+04	    0.000000E+00	    1.000000E+00	    0.000000E+00	    0.000000E+00	
   -1.269280E-03	    2.787208E-02	    0.000000E+00	   -1.000000E+00	    1.640000E-03	    1.640000E-03	    7.900000E+02	    0.000000E+00	    0.000000E+00	    1.328476E+04	    0.000000E+00	    1.000000E+00	    0.000000E+00	    0.000000E+00	
   -4.109650E-04	    2.789784E-02	    0.000000E+00	   -1.000000E+00	    1.640000E-03	    1.640000E-03	    7.900000E+02	    0.000000E+00	    0.000000E+00	    1.326034E+04	    0.000000E+00	    1.000000E+00	    0.000000E+00	    0.000000E+00	
    4.109650E-04	    2.789784E-02	    0.000000E+00	   -1.000000E+00	    1.640000E-03	    1.640000E-03	    7.900000E+02	    0.000000E+00	    0.000000E+00	    1.326034E+04	    0.000000E+00	    1.000000E+00	    0.000000E+00	    0.000000E+00	
    1.269280E-03	    2.787208E-02	    0.000000E+00	   -1.000000E+00	    1.640000E-03	    1.640000E-03	    7.900000E+02	    0.000000E+00	    0.000000E+00	    1.328476E+04	    0.000000E+00	    1.000000E+00	    0.000000E+00	    0.000000E+00	
    2.202212E-03	    2.781412E-02	    0.000000E+00	   -1.000000E+00	    1.640000E-03	    1.640000E-03	    7.900000E+02	    0.000000E+00	    0.000000E+00	    1.333992E+04	    0.000000E+00	    1.000000E+00	    0.000000E+00	    0.000000E+00	
    3.213118E-03	    2.771589E-02	    0.000000E+00	   -1.000000E+00	    1.640000E-03	    1.640000E-03	    7.900000E+02	    0.000000E+00	    0.000000E+00	    1.343422E+04	    0.000000E+00	    1.000000E+00	    0.000000E+00	    0.000000E+00	
    4.304375E-03	    2.756803E-02	    0.000000E+00	   -1.000000E+00	    1.640000E-03	    1.640000E-03	    7.900000E+02	    0.000000E+00	    0.000000E+00	    1.357806E+04	    0.000000E+00	    1.000000E+00	    0.000000E+00	    0.000000E+00	
    5.476959E-03	    2.735997E-02	    0.000000E+00	   -1.000000E+00	    1.640000E-03	    1.640000E-03	    7.900000E+02	    0.000000E+00	    0.000000E+00	    1.378443E+04	    0.000000E+00	    1.000000E+00	    0.000000E+00	    0.000000E+00	
    6.729961E-03	    2.708004E-02	    0.000000E+00	   -1.000000E+00	    1.640000E-03	    1.640000E-03	    7.900000E+02	    0.000000E+00	    0.000000E+00	    1.406966E+04	    0.000000E+00	    1.000000E+00	    0.000000E+00	    0.000000E+00	
    8.060042E-03	    2.671570E-02	    0.000000E+00	   -1.000000E+00	    1.640000E-03	    1.640000E-03	    7.900000E+02	    0.000000E+00	    0.000000E+00	    1.445442E+04	    0.000000E+00	    1.000000E+00	    0.000000E+00	    0.000000E+00	
    9.460882E-03	    2.625407E-02	    0.000000E+00	   -1.000000E+00	    1.640000E-03	    1.640000E-03	    7.900000E+02	    0.000000E+00	    0.000000E+00	    1.496514E+04	    0.000000E+00	    1.000000E+00	    0.000000E+00	    0.000000E+00	
    1.092267E-02	    2.568255E-02	    0.000000E+00	   -1.000000E+00	    1.640000E-03	    1.640000E-03	    7.900000E+02	    0.000000E+00	    0.000000E+00	    1.563605E+04	    0.000000E+00	    1.000000E+00	    0.000000E+00	    0.000000E+00	
    1.243173E-02	    2.498974E-02	    0.000000E+00	   -1.000000E+00	    1.640000E-03	    1.640000E-03	    7.900000E+02	    0.000000E+00	    0.000000E+00	    1.651192E+04	    0.000000E+00	    1.000000E+00	    0.000000E+00	    0.000000E+00	
    1.397041E-02	    2.416663E-02	    0.000000E+00	   -1.000000E+00	    1.640000E-03	    1.640000E-03	    7.900000E+02	    0.000000E+00	    0.000000E+00	    1.765210E+04	    0.000000E+00	    1.000000E+00	    0.000000E+00	    0.000000E+00	
    1.551729E-02	    2.320780E-02	    0.000000E+00	   -1.000000E+00	    1.640000E-03	    1.640000E-03	    7.900000E+02	    0.000000E+00	    0.000000E+00	    1.913634E+04	    0.000000E+00	    1.000000E+00	    0.000000E+00	    0.000000E+00	
    1.704790E-02	    2.211278E-02	    0.000000E+00	   -1.000000E+00	    1.640000E-03	    1.640000E-03	    7.900000E+02	    0.000000E+00	    0.000000E+00	    2.107326E+04	    0.000000E+00	    1.000000E+00	    0.000000E+00	    0.000000E+00	
    1.853586E-02	    2.088710E-02	    0.000000E+00	   -1.000000E+00	    1.640000E-03	    1.640000E-03	    7.900000E+02	    0.000000E+00	    0.000000E+00	    2.361286E+04	    0.000000E+00	    1.000000E+00	    0.000000E+00	    0.000000E+00	
    1.995457E-02	    1.954304E-02	    0.000000E+00	   -1.000000E+00	    1.640000E-03	    1.640000E-03	    7.900000E+02	    0.000000E+00	    0.000000E+00	    2.696525E+04	    0.000000E+00	    1.000000E+00	    0.000000E+00	    0.000000E+00	
    2.127915E-02	    1.809970E-02	    0.000000E+00	   -1.000000E+00	    1.640000E-03	    1.640000E-03	    7.900000E+02	    0.000000E+00	    0.000000E+00	    3.142886E+04	    0.000000E+00	    1.000000E+00	    0.000000E+00	    0.000000E+00	
    2.248839E-02	    1.658235E-02	    0.000000E+00	   -1.000000E+00	    1.640000E-03	    1.640000E-03	    7.900000E+02	    0.000000E+00	    0.000000E+00	    3.743378E+04	    0.000000E+00	    1.000000E+00	    0.000000E+00	    0.000000E+00	
    2.356655E-02	    1.502097E-02	    0.000000E+00	   -1.000000E+00	    1.640000E-03	    1.640000E-03	    7.900000E+02	    0.000000E+00	    0.000000E+00	    4.560864E+04	    0.000000E+00	    1.000000E+00	    0.000000E+00	    0.000000E+00	
    2.450445E-02	    1.344825E-02	    0.000000E+00	   -1.000000E+00	    1.640000E-03	    1.640000E-03	    7.900000E+02	    0.000000E+00	    0.000000E+00	    5.688566E+04	    0.000000E+00	    1.000000E+00	    0.000000E+00	    0.000000E+00	
    2.529995E-02	    1.189722E-02	    0.000000E+00	   -1.000000E+00	    1.640000E-03	    1.640000E-03	    7.900000E+02	    0.000000E+00	    0.000000E+00	    7.266751E+04	    0.000000E+00	    1.000000E+00	    0.000000E+00	    0.000000E+00	
    2.595751E-02	    1.039885E-02	    0.000000E+00	   -1.000000E+00	    1.640000E-03	    1.640000E-03	    7.900000E+02	    0.000000E+00	    0.000000E+00	    9.509610E+04	    0.000000E+00	    1.000000E+00	    0.000000E+00	    0.000000E+00	
    2.648711E-02	    8.980112E-03	    0.000000E+00	   -1.000000E+00	    1.640000E-03	    1.640000E-03	    7.900000E+02	    0.000000E+00	    0.000000E+00	    1.274909E+05	    0.000000E+00	    1.000000E+00	    0.000000E+00	    0.000000E+00	
    2.690274E-02	    7.662479E-03	    0.000000E+00	   -1.000000E+00	    1.640000E-03	    1.640000E-03	    7.900000E+02	    0.000000E+00	    0.000000E+00	    1.750736E+05	    0.000000E+00	    1.000000E+00	    0.000000E+00	    0.000000E+00	
    2.722061E-02	    6.461222E-03	    0.000000E+00	   -1.000000E+00	    1.640000E-03	    1.640000E-03	    7.900000E+02	    0.000000E+00	    0.000000E+00	    2.461810E+05	    0.000000E+00	    1.000000E+00	    0.000000E+00	    0.000000E+00	
    2.745762E-02	    5.385299E-03	    0.000000E+00	   -1.000000E+00	    1.640000E-03	    1.640000E-03	    7.900000E+02	    0.000000E+00	    0.000000E+00	    3.543209E+05	    0.000000E+00	    1.000000E+00	    0.000000E+00	    0.000000E+00	
    2.762999E-02	    4.437808E-03	    0.000000E+00	   -1.000000E+00	    1.640000E-03	    1.640000E-03	    7.900000E+02	    0.000000E+00	    0.000000E+00	    5.216991E+05	    0.000000E+00	    1.000000E+00	    0.000000E+00	    0.000000E+00	
    2.775233E-02	    3.616803E-03	    0.000000E+00	   -1.000000E+00	    1.640000E-03	    1.640000E-03	    7.900000E+02	    0.000000E+00	    0.000000E+00	    7.853369E+05	    0.000000E+00	    1.000000E+00	    0.000000E+00	    0.000000E+00	
    2.783715E-02	    2.916317E-03	    0.000000E+00	   -1.000000E+00	    1.640000E-03	    1.640000E-03	    7.900000E+02	    0.000000E+00	    0.000000E+00	    1.207793E+06	    0.000000E+00	    1.000000E+00	    0.000000E+00	    0.000000E+00	
    2.789465E-02	    2.327438E-03	    0.000000E+00	   -1.000000E+00	    1.640000E-03	    1.640000E-03	    7.900000E+02	    0.000000E+00	    0.000000E+00	    1.896134E+06	    0.000000E+00	    1.000000E+00	    0.000000E+00	    0.000000E+00	
    2.793282E-02	    1.839347E-03	    0.000000E+00	   -1.000000E+00	    1.640000E-03	    1.640000E-03	    7.900000E+02	    0.000000E+00	    0.000000E+00	    3.035762E+06	    0.000000E+00	    1.000000E+00	    0.000000E+00	    0.000000E+00	
    2.795765E-02	    1.440230E-03	    0.000000E+00	   -1.000000E+00	    1.640000E-03	    1.640000E-03	    7.900000E+02	    0.000000E+00	    0.000000E+00	    4.951151E+06	    0.000000E+00	    1.000000E+00	    0.000000E+00	    0.000000E+00	
    2.797353E-02	    1.118047E-03	    0.000000E+00	   -1.000000E+00	    1.640000E-03	    1.640000E-03	    7.900000E+02	    0.000000E+00	    0.000000E+00	    8.215425E+06	    0.000000E+00	    1.000000E+00	    0.000000E+00	    0.000000E+00	
    2.798353E-02	    8.611186E-04	    0.000000E+00	   -1.000000E+00	    1.640000E-03	    1.640000E-03	    7.900000E+02	    0.000000E+00	    0.000000E+00	    1.384867E+07	    0.000000E+00	    1.000000E+00	    0.000000E+00	    0.000000E+00	
    2.798975E-02	    6.585608E-04	    0.000000E+00	   -1.000000E+00	    1.640000E-03	    1.640000E-03	    7.900000E+02	    0.000000E+00	    0.000000E+00	    2.367716E+07	    0.000000E+00	    1.000000E+00	    0.000000E+00	    0.000000E+00	
    2.799358E-02	    5.005555E-04	    0.000000E+00	   -1.000000E+00	    1.640000E-03	    1.640000E-03	    7.900000E+02	    0.000000E+00	    0.000000E+00	    4.098331E+07	    0.000000E+00	    1.000000E+00	    0.000000E+00	    0.000000E+00	
    2.799593E-02	    3.784968E-04	    0.000000E+00	   -1.000000E+00	    1.640000E-03	    1.640000E-03	    7.900000E+02	    0.000000E+00	    0.000000E+00	    7.167694E+07	    0.000000E+00	    1.000000E+00	    0.000000E+00	    0.000000E+00	
    2.799736E-02	    2.850284E-04	    0.000000E+00	   -1.000000E+00	    1.640000E-03	    1.640000E-03	    7.900000E+02	    0.000000E+00	    0.000000E+00	    1.263926E+08	    0.000000E+00	    1.000000E+00	    0.000000E+00	    0.000000E+00	
    2.799825E-02	    2.140027E-04	    0.000000E+00	   -1.000000E+00	    1.640000E-03	    1.640000E-03	    7.900000E+02	    0.000000E+00	    0.000000E+00	    2.242101E+08	    0.000000E+00	    1.000000E+00	    0.000000E+00	    0.000000E+00	
    2.799880E-02	    1.603853E-04	    0.000000E+00	   -1.000000E+00	    1.640000E-03	    1.640000E-03	    7.900000E+02	    0.000000E+00	    0.000000E+00	    3.991728E+08	    0.000000E+00	    1.000000E+00	    0.000000E+00	    0.000000E+00	
    2.799899E-02	    1.388051E-04	    0.000000E+00	   -1.000000E+00	    1.640000E-03	    1.640000E-03	    7.900000E+02	    0.000000E+00	    0.000000E+00	    0.000000E+00	    0.000000E+00	    1.000000E+00	    0.000000E+00	    0.000000E+00	
   -2.799843E-02	    1.387992E-04	    0.000000E+00	   -1.000000E+00	    1.640000E-03	    1.640000E-03	    7.900000E+02	    0.000000E+00	    0.000000E+00	    0.000000E+00	    0.000000E+00	    1.000000E+00	    0.000000E+00	    0.000000E+00	
   -2.799815E-02	    1.603781E-04	    7.685284E-05	   -1.000000E+00	    1.640000E-03	    1.640000E-03	    7.900000E+02	    1.870908E-15	    9.453361E-10	    3.991728E+08	    1.420305E+04	    1.000000E+00	    6.450196E-07	    1.244308E+01	
   -2.799739E-02	    2.139913E-04	    2.351367E-04	   -1.000000E+00	    1.640000E-03	    1.640000E-03	    7.900000E+02	    6.378899E-15	    1.810397E-09	    2.242101E+08	    7.463656E+04	    1.000000E+00	    8.606485E-07	    2.959214E+01	
   -2.799622E-02	    2.850104E-04	    4.096354E-04	   -1.000000E+00	    1.640000E-03	    1.640000E-03	    7.900000E+02	    3.443918E-14	    5.509948E-09	    1.263926E+08	    1.276882E+05	    1.000000E+00	    1.146285E-06	    5.069987E+01	
   -2.799440E-02	    3.784678E-04	    6.125517E-04	   -1.000000E+00	    1.640000E-03	    1.640000E-03	    7.900000E+02	    1.365872E-13	    1.239260E-08	    7.167694E+07	    1.619136E+05	    1.000000E+00	    1.522172E-06	    6.447886E+01	
   -2.799156E-02	    5.005083E-04	    8.570439E-04	   -1.000000E+00	    1.640000E-03	    1.640000E-03	    7.900000E+02	    4.714548E-13	    2.445795E-08	    4.098331E+07	    1.812227E+05	    1.000000E+00	    2.013028E-06	    7.246594E+01	
   -2.798710E-02	    6.584838E-04	    1.156304E-03	   -1.000000E+00	    1.640000E-03	    1.640000E-03	    7.900000E+02	    1.501386E-12	    4.499818E-08	    2.367716E+07	    1.905672E+05	    1.000000E+00	    2.648430E-06	    7.661489E+01	
   -2.798007E-02	    8.609929E-04	    1.523884E-03	   -1.000000E+00	    1.640000E-03	    1.640000E-03	    7.900000E+02	    4.519970E-12	    7.923489E-08	    1.384867E+07	    1.935760E+05	    1.000000E+00	    3.462975E-06	    7.836677E+01	
   -2.796904E-02	    1.117842E-03	    1.975856E-03	   -1.000000E+00	    1.640000E-03	    1.640000E-03	    7.900000E+02	    1.303879E-11	    1.355939E-07	    8.215425E+06	    1.930348E+05	    1.000000E+00	    4.496125E-06	    7.885321E+01	
   -2.795187E-02	    1.439900E-03	    2.531424E-03	   -1.000000E+00	    1.640000E-03	    1.640000E-03	    7.900000E+02	    3.633629E-11	    2.277297E-07	    4.951151E+06	    1.909297E+05	    1.000000E+00	    5.791623E-06	    7.890323E+01	
   -2.792544E-02	    1.838820E-03	    3.210587E-03	   -1.000000E+00	    1.640000E-03	    1.640000E-03	    7.900000E+02	    9.812722E-11	    3.770770E-07	    3.035762E+06	    1.882790E+05	    1.000000E+00	    7.396386E-06	    7.895526E+01	
   -2.788533E-02	    2.326609E-03	    4.034933E-03	   -1.000000E+00	    1.640000E-03	    1.640000E-03	    7.900000E+02	    2.571821E-10	    6.172806E-07	    1.896134E+06	    1.857026E+05	    1.000000E+00	    9.358772E-06	    7.929769E+01	
   -2.782550E-02	    2.915031E-03	    5.023664E-03	   -1.000000E+00	    1.640000E-03	    1.640000E-03	    7.900000E+02	    6.533802E-10	    9.989218E-07	    1.207793E+06	    1.833166E+05	    1.000000E+00	    1.172619E-05	    8.000051E+01	
   -2.773792E-02	    3.614845E-03	    6.193110E-03	   -1.000000E+00	    1.640000E-03	    1.640000E-03	    7.900000E+02	    1.605793E-09	    1.596315E-06	    7.853369E+05	    1.810971E+05	    1.000000E+00	    1.454204E-05	    8.106584E+01	
   -2.761239E-02	    4.434882E-03	    7.555832E-03	   -1.000000E+00	    1.640001E-03	    1.640000E-03	    7.900000E+02	    3.809321E-09	    2.515594E-06	    5.216991E+05	    1.790064E+05	    1.000000E+00	    1.784199E-05	    8.247769E+01	
   -2.743640E-02	    5.381016E-03	    9.119459E-03	   -1.000000E+00	    1.640001E-03	    1.640000E-03	    7.900000E+02	    8.702715E-09	    3.903232E-06	    3.543209E+05	    1.770260E+05	    1.000000E+00	    2.164986E-05	    8.421541E+01	
   -2.719537E-02	    6.455087E-03	    1.088611E-02	   -1.000000E+00	    1.640003E-03	    1.640000E-03	    7.900000E+02	    1.910750E-08	    5.954306E-06	    2.461810E+05	    1.751820E+05	    1.000000E+00	    2.597326E-05	    8.626922E+01	
   -2.687316E-02	    7.653884E-03	    1.285357E-02	   -1.000000E+00	    1.640006E-03	    1.640000E-03	    7.900000E+02	    4.026297E-08	    8.922763E-06	    1.750736E+05	    1.735842E+05	    1.000000E+00	    3.079950E-05	    8.867615E+01	
   -2.645299E-02	    8.968343E-03	    1.499556E-02	   -1.000000E+00	    1.640012E-03	    1.640000E-03	    7.900000E+02	    8.105695E-08	    1.308104E-05	    1.274909E+05	    1.719289E+05	    1.000000E+00	    3.609234E-05	    9.121669E+01	
   -2.591879E-02	    1.038311E-02	    1.729395E-02	   -1.000000E+00	    1.640023E-03	    1.640000E-03	    7.900000E+02	    1.557727E-07	    1.875111E-05	    9.509610E+04	    1.704245E+05	    1.000000E+00	    4.179021E-05	    9.394618E+01	
   -2.525679E-02	    1.187666E-02	    1.970736E-02	   -1.000000E+00	    1.640043E-03	    1.640000E-03	    7.900000E+02	    2.850716E-07	    2.622208E-05	    7.266751E+04	    1.689338E+05	    1.000000E+00	    4.780661E-05	    9.674015E+01	
   -2.445721E-02	    1.342203E-02	    2.221525E-02	   -1.000000E+00	    1.640075E-03	    1.640000E-03	    7.900000E+02	    4.976518E-07	    3.583449E-05	    5.688566E+04	    1.678135E+05	    1.000000E+00	    5.403313E-05	    9.979346E+01	
   -2.351581E-02	    1.498830E-02	    2.471523E-02	   -1.000000E+00	    1.640123E-03	    1.640000E-03	    7.900000E+02	    8.218456E-07	    4.744717E-05	    4.560864E+04	    1.662282E+05	    1.000000E+00	    6.034528E-05	    1.024245E+02	
   -2.243496E-02	    1.654258E-02	    2.720854E-02	   -1.000000E+00	    1.640194E-03	    1.640000E-03	    7.900000E+02	    1.294427E-06	    6.133580E-05	    3.743378E+04	    1.649552E+05	    1.000000E+00	    6.661051E-05	    1.052198E+02	
   -2.122397E-02	    1.805237E-02	    2.964123E-02	   -1.000000E+00	    1.640291E-03	    1.640000E-03	    7.900000E+02	    1.941980E-06	    7.725849E-05	    3.142886E+04	    1.638676E+05	    1.000000E+00	    7.269774E-05	    1.080061E+02	
   -1.989871E-02	    1.948790E-02	    3.195598E-02	   -1.000000E+00	    1.640416E-03	    1.640000E-03	    7.900000E+02	    2.773102E-06	    9.465492E-05	    2.696525E+04	    1.628099E+05	    1.000000E+00	    7.848680E-05	    1.105735E+02	
   -1.848041E-02	    2.082416E-02	    3.407379E-02	   -1.000000E+00	    1.640565E-03	    1.640000E-03	    7.900000E+02	    3.763550E-06	    1.124914E-04	    2.361286E+04	    1.614125E+05	    1.000000E+00	    8.387660E-05	    1.125432E+02	
   -1.699392E-02	    2.204227E-02	    3.601422E-02	   -1.000000E+00	    1.640735E-03	    1.640000E-03	    7.900000E+02	    4.900782E-06	    1.307284E-04	    2.107326E+04	    1.601889E+05	    1.000000E+00	    8.879079E-05	    1.144310E+02	
   -1.546574E-02	    2.313018E-02	    3.775111E-02	   -1.000000E+00	    1.640921E-03	    1.640000E-03	    7.900000E+02	    6.137643E-06	    1.486735E-04	    1.913634E+04	    1.590736E+05	    1.000000E+00	    9.318042E-05	    1.161496E+02	
   -1.392209E-02	    2.408250E-02	    3.927370E-02	   -1.000000E+00	    1.641113E-03	    1.640000E-03	    7.900000E+02	    7.416859E-06	    1.657255E-04	    1.765210E+04	    1.580620E+05	    1.000000E+00	    9.702350E-05	    1.176693E+02	
   -1.238727E-02	    2.489981E-02	    4.058192E-02	   -1.000000E+00	    1.641302E-03	    1.640000E-03	    7.900000E+02	    8.679057E-06	    1.814024E-04	    1.651192E+04	    1.571620E+05	    1.000000E+00	    1.003222E-04	    1.189818E+02	
   -1.088252E-02	    2.558758E-02	    4.168380E-02	   -1.000000E+00	    1.641481E-03	    1.640000E-03	    7.900000E+02	    9.870714E-06	    1.953658E-04	    1.563605E+04	    1.563796E+05	    1.000000E+00	    1.030984E-04	    1.200905E+02	
   -9.425339E-03	    2.615486E-02	    4.259328E-02	   -1.000000E+00	    1.641642E-03	    1.640000E-03	    7.900000E+02	    1.094995E-05	    2.074273E-04	    1.496514E+04	    1.557161E+05	    1.000000E+00	    1.053883E-04	    1.210067E+02	
   -8.029232E-03	    2.661298E-02	    4.332819E-02	   -1.000000E+00	    1.641783E-03	    1.640000E-03	    7.900000E+02	    1.188927E-05	    2.175347E-04	    1.445442E+04	    1.551681E+05	    1.000000E+00	    1.072379E-04	    1.217472E+02	
   -6.703886E-03	    2.697451E-02	    4.390838E-02	   -1.000000E+00	    1.641901E-03	    1.640000E-03	    7.900000E+02	    1.267544E-05	    2.257457E-04	    1.406966E+04	    1.547277E+05	    1.000000E+00	    1.086975E-04	    1.223316E+02	
   -5.455520E-03	    2.725227E-02	    4.435427E-02	   -1.000000E+00	    1.641996E-03	    1.640000E-03	    7.900000E+02	    1.330741E-05	    2.321963E-04	    1.378443E+04	    1.543846E+05	    1.000000E+00	    1.098189E-04	    1.227804E+02	
   -4.287398E-03	    2.745869E-02	    4.468569E-02	   -1.000000E+00	    1.642069E-03	    1.640000E-03	    7.900000E+02	    1.379327E-05	    2.370706E-04	    1.357806E+04	    1.541268E+05	    1.000000E+00	    1.106524E-04	    1.231136E+02	
   -3.200378E-03	    2.760538E-02	    4.492118E-02	   -1.000000E+00	    1.642122E-03	    1.640000E-03	    7.900000E+02	    1.414708E-05	    2.405759E-04	    1.343422E+04	    1.539418E+05	    1.000000E+00	    1.112447E-04	    1.233500E+02	
   -2.193449E-03	    2.770283E-02	    4.507757E-02	   -1.000000E+00	    1.642158E-03	    1.640000E-03	    7.900000E+02	    1.438608E-05	    2.429230E-04	    1.333992E+04	    1.538177E+05	    1.000000E+00	    1.116382E-04	    1.235064E+02	
   -1.264218E-03	    2.776032E-02	    4.516969E-02	   -1.000000E+00	    1.642179E-03	    1.640000E-03	    7.900000E+02	    1.452849E-05	    2.443132E-04	    1.328476E+04	    1.537434E+05	    1.000000E+00	    1.118704E-04	    1.235979E+02	
   -4.093248E-04	    2.778588E-02	    4.521038E-02	   -1.000000E+00	    1.642189E-03	    1.640000E-03	    7.900000E+02	    1.459198E-05	    2.449299E-04	    1.326034E+04	    1.537085E+05	    1.000000E+00	    1.119736E-04	    1.236371E+02	
    4.093248E-04	    2.778588E-02	    4.521038E-02	   -1.000000E+00	    1.642189E-03	    1.640000E-03	    7.900000E+02	    1.459198E-05	    2.449299E-04	    1.326034E+04	    1.537085E+05	    1.000000E+00	    1.119736E-04	    1.236371E+02	