Title="Fields"
Variables="X""Y""Velocity""Phi""Effective Viscosity""Dynamic Viscosity""Density""Eddy Viscosity""K""Epsilon""S"
Zone I=82 J=82 F=POINT
   -1.215000E-02	    6.023337E-05	    0.000000E+00	   -1.000000E+00	    1.600000E-03	    1.600000E-03	    8.010000E+02	    0.000000E+00	    0.000000E+00	    0.000000E+00	    0.000000E+00	
   -1.214999E-02	    6.959839E-05	    0.000000E+00	   -1.000000E+00	    1.600000E-03	    1.600000E-03	    8.010000E+02	    0.000000E+00	    0.000000E+00	    0.000000E+00	    0.000000E+00	
   -1.214995E-02	    9.286683E-05	    0.000000E+00	   -1.000000E+00	    1.600000E-03	    1.600000E-03	    8.010000E+02	    0.000000E+00	    0.000000E+00	    0.000000E+00	    0.000000E+00	
   -1.214982E-02	    1.236912E-04	    0.000000E+00	   -1.000000E+00	    1.600000E-03	    1.600000E-03	    8.010000E+02	    0.000000E+00	    0.000000E+00	    0.000000E+00	    0.000000E+00	
   -1.214953E-02	    1.642573E-04	    0.000000E+00	   -1.000000E+00	    1.600000E-03	    1.600000E-03	    8.010000E+02	    0.000000E+00	    0.000000E+00	    0.000000E+00	    0.000000E+00	
   -1.214895E-02	    2.172353E-04	    0.000000E+00	   -1.000000E+00	    1.600000E-03	    1.600000E-03	    8.010000E+02	    0.000000E+00	    0.000000E+00	    0.000000E+00	    0.000000E+00	
   -1.214786E-02	    2.858212E-04	    0.000000E+00	   -1.000000E+00	    1.600000E-03	    1.600000E-03	    8.010000E+02	    0.000000E+00	    0.000000E+00	    0.000000E+00	    0.000000E+00	
   -1.214588E-02	    3.737554E-04	    0.000000E+00	   -1.000000E+00	    1.600000E-03	    1.600000E-03	    8.010000E+02	    0.000000E+00	    0.000000E+00	    0.000000E+00	    0.000000E+00	
   -1.214247E-02	    4.853080E-04	    0.000000E+00	   -1.000000E+00	    1.600000E-03	    1.600000E-03	    8.010000E+02	    0.000000E+00	    0.000000E+00	    0.000000E+00	    0.000000E+00	
   -1.213673E-02	    6.252171E-04	    0.000000E+00	   -1.000000E+00	    1.600000E-03	    1.600000E-03	    8.010000E+02	    0.000000E+00	    0.000000E+00	    0.000000E+00	    0.000000E+00	
   -1.212738E-02	    7.985715E-04	    0.000000E+00	   -1.000000E+00	    1.600000E-03	    1.600000E-03	    8.010000E+02	    0.000000E+00	    0.000000E+00	    0.000000E+00	    0.000000E+00	
   -1.211256E-02	    1.010627E-03	    0.000000E+00	   -1.000000E+00	    1.600000E-03	    1.600000E-03	    8.010000E+02	    0.000000E+00	    0.000000E+00	    0.000000E+00	    0.000000E+00	
   -1.208970E-02	    1.266553E-03	    0.000000E+00	   -1.000000E+00	    1.600000E-03	    1.600000E-03	    8.010000E+02	    0.000000E+00	    0.000000E+00	    0.000000E+00	    0.000000E+00	
   -1.205536E-02	    1.571099E-03	    0.000000E+00	   -1.000000E+00	    1.600000E-03	    1.600000E-03	    8.010000E+02	    0.000000E+00	    0.000000E+00	    0.000000E+00	    0.000000E+00	
   -1.200513E-02	    1.928202E-03	    0.000000E+00	   -1.000000E+00	    1.600000E-03	    1.600000E-03	    8.010000E+02	    0.000000E+00	    0.000000E+00	    0.000000E+00	    0.000000E+00	
   -1.193359E-02	    2.340538E-03	    0.000000E+00	   -1.000000E+00	    1.600000E-03	    1.600000E-03	    8.010000E+02	    0.000000E+00	    0.000000E+00	    0.000000E+00	    0.000000E+00	
   -1.183435E-02	    2.809047E-03	    0.000000E+00	   -1.000000E+00	    1.600000E-03	    1.600000E-03	    8.010000E+02	    0.000000E+00	    0.000000E+00	    0.000000E+00	    0.000000E+00	
   -1.170031E-02	    3.332485E-03	    0.000000E+00	   -1.000000E+00	    1.600000E-03	    1.600000E-03	    8.010000E+02	    0.000000E+00	    0.000000E+00	    0.000000E+00	    0.000000E+00	
   -1.152405E-02	    3.907061E-03	    0.000000E+00	   -1.000000E+00	    1.600000E-03	    1.600000E-03	    8.010000E+02	    0.000000E+00	    0.000000E+00	    0.000000E+00	    0.000000E+00	
   -1.129838E-02	    4.526229E-03	    0.000000E+00	   -1.000000E+00	    1.600000E-03	    1.600000E-03	    8.010000E+02	    0.000000E+00	    0.000000E+00	    0.000000E+00	    0.000000E+00	
   -1.101707E-02	    5.180713E-03	    0.000000E+00	   -1.000000E+00	    1.600000E-03	    1.600000E-03	    8.010000E+02	    0.000000E+00	    0.000000E+00	    0.000000E+00	    0.000000E+00	
   -1.067557E-02	    5.858817E-03	    0.000000E+00	   -1.000000E+00	    1.600000E-03	    1.600000E-03	    8.010000E+02	    0.000000E+00	    0.000000E+00	    0.000000E+00	    0.000000E+00	
   -1.027176E-02	    6.547038E-03	    0.000000E+00	   -1.000000E+00	    1.600000E-03	    1.600000E-03	    8.010000E+02	    0.000000E+00	    0.000000E+00	    0.000000E+00	    0.000000E+00	
   -9.806383E-03	    7.230933E-03	    0.000000E+00	   -1.000000E+00	    1.600000E-03	    1.600000E-03	    8.010000E+02	    0.000000E+00	    0.000000E+00	    0.000000E+00	    0.000000E+00	
   -9.283258E-03	    7.896152E-03	    0.000000E+00	   -1.000000E+00	    1.600000E-03	    1.600000E-03	    8.010000E+02	    0.000000E+00	    0.000000E+00	    0.000000E+00	    0.000000E+00	
   -8.709133E-03	    8.529478E-03	    0.000000E+00	   -1.000000E+00	    1.600000E-03	    1.600000E-03	    8.010000E+02	    0.000000E+00	    0.000000E+00	    0.000000E+00	    0.000000E+00	
   -8.093172E-03	    9.119731E-03	    0.000000E+00	   -1.000000E+00	    1.600000E-03	    1.600000E-03	    8.010000E+02	    0.000000E+00	    0.000000E+00	    0.000000E+00	    0.000000E+00	
   -7.446211E-03	    9.658410E-03	    0.000000E+00	   -1.000000E+00	    1.600000E-03	    1.600000E-03	    8.010000E+02	    0.000000E+00	    0.000000E+00	    0.000000E+00	    0.000000E+00	
   -6.779881E-03	    1.014000E-02	    0.000000E+00	   -1.000000E+00	    1.600000E-03	    1.600000E-03	    8.010000E+02	    0.000000E+00	    0.000000E+00	    0.000000E+00	    0.000000E+00	
   -6.105753E-03	    1.056195E-02	    0.000000E+00	   -1.000000E+00	    1.600000E-03	    1.600000E-03	    8.010000E+02	    0.000000E+00	    0.000000E+00	    0.000000E+00	    0.000000E+00	
   -5.434607E-03	    1.092436E-02	    0.000000E+00	   -1.000000E+00	    1.600000E-03	    1.600000E-03	    8.010000E+02	    0.000000E+00	    0.000000E+00	    0.000000E+00	    0.000000E+00	
   -4.775896E-03	    1.122954E-02	    0.000000E+00	   -1.000000E+00	    1.600000E-03	    1.600000E-03	    8.010000E+02	    0.000000E+00	    0.000000E+00	    0.000000E+00	    0.000000E+00	
   -4.137440E-03	    1.148139E-02	    0.000000E+00	   -1.000000E+00	    1.600000E-03	    1.600000E-03	    8.010000E+02	    0.000000E+00	    0.000000E+00	    0.000000E+00	    0.000000E+00	
   -3.525309E-03	    1.168488E-02	    0.000000E+00	   -1.000000E+00	    1.600000E-03	    1.600000E-03	    8.010000E+02	    0.000000E+00	    0.000000E+00	    0.000000E+00	    0.000000E+00	
   -2.943876E-03	    1.184552E-02	    0.000000E+00	   -1.000000E+00	    1.600000E-03	    1.600000E-03	    8.010000E+02	    0.000000E+00	    0.000000E+00	    0.000000E+00	    0.000000E+00	
   -2.395977E-03	    1.196897E-02	    0.000000E+00	   -1.000000E+00	    1.600000E-03	    1.600000E-03	    8.010000E+02	    0.000000E+00	    0.000000E+00	    0.000000E+00	    0.000000E+00	
   -1.883130E-03	    1.206073E-02	    0.000000E+00	   -1.000000E+00	    1.600000E-03	    1.600000E-03	    8.010000E+02	    0.000000E+00	    0.000000E+00	    0.000000E+00	    0.000000E+00	
   -1.405776E-03	    1.212595E-02	    0.000000E+00	   -1.000000E+00	    1.600000E-03	    1.600000E-03	    8.010000E+02	    0.000000E+00	    0.000000E+00	    0.000000E+00	    0.000000E+00	
   -9.635208E-04	    1.216929E-02	    0.000000E+00	   -1.000000E+00	    1.600000E-03	    1.600000E-03	    8.010000E+02	    0.000000E+00	    0.000000E+00	    0.000000E+00	    0.000000E+00	
   -5.553500E-04	    1.219486E-02	    0.000000E+00	   -1.000000E+00	    1.600000E-03	    1.600000E-03	    8.010000E+02	    0.000000E+00	    0.000000E+00	    0.000000E+00	    0.000000E+00	
   -1.798116E-04	    1.220622E-02	    0.000000E+00	   -1.000000E+00	    1.600000E-03	    1.600000E-03	    8.010000E+02	    0.000000E+00	    0.000000E+00	    0.000000E+00	    0.000000E+00	
    1.798116E-04	    1.220622E-02	    0.000000E+00	   -1.000000E+00	    1.600000E-03	    1.600000E-03	    8.010000E+02	    0.000000E+00	    0.000000E+00	    0.000000E+00	    0.000000E+00	
    5.553500E-04	    1.219486E-02	    0.000000E+00	   -1.000000E+00	    1.600000E-03	    1.600000E-03	    8.010000E+02	    0.000000E+00	    0.000000E+00	    0.000000E+00	    0.000000E+00	
    9.635208E-04	    1.216929E-02	    0.000000E+00	   -1.000000E+00	    1.600000E-03	    1.600000E-03	    8.010000E+02	    0.000000E+00	    0.000000E+00	    0.000000E+00	    0.000000E+00	
    1.405776E-03	    1.212595E-02	    0.000000E+00	   -1.000000E+00	    1.600000E-03	    1.600000E-03	    8.010000E+02	    0.000000E+00	    0.000000E+00	    0.000000E+00	    0.000000E+00	
    1.883130E-03	    1.206073E-02	    0.000000E+00	   -1.000000E+00	    1.600000E-03	    1.600000E-03	    8.010000E+02	    0.000000E+00	    0.000000E+00	    0.000000E+00	    0.000000E+00	
    2.395977E-03	    1.196897E-02	    0.000000E+00	   -1.000000E+00	    1.600000E-03	    1.600000E-03	    8.010000E+02	    0.000000E+00	    0.000000E+00	    0.000000E+00	    0.000000E+00	
    2.943876E-03	    1.184552E-02	    0.000000E+00	   -1.000000E+00	    1.600000E-03	    1.600000E-03	    8.010000E+02	    0.000000E+00	    0.000000E+00	    0.000000E+00	    0.000000E+00	
    3.525309E-03	    1.168488E-02	    0.000000E+00	   -1.000000E+00	    1.600000E-03	    1.600000E-03	    8.010000E+02	    0.000000E+00	    0.000000E+00	    0.000000E+00	    0.000000E+00	
    4.137440E-03	    1.148139E-02	    0.000000E+00	   -1.000000E+00	    1.600000E-03	    1.600000E-03	    8.010000E+02	    0.000000E+00	    0.000000E+00	    0.000000E+00	    0.000000E+00	
    4.775896E-03	    1.122954E-02	    0.000000E+00	   -1.000000E+00	    1.600000E-03	    1.600000E-03	    8.010000E+02	    0.000000E+00	    0.000000E+00	    0.000000E+00	    0.000000E+00	
    5.434607E-03	    1.092436E-02	    0.000000E+00	   -1.000000E+00	    1.600000E-03	    1.600000E-03	    8.010000E+02	    0.000000E+00	    0.000000E+00	    0.000000E+00	    0.000000E+00	
    6.105753E-03	    1.056195E-02	    0.000000E+00	   -1.000000E+00	    1.600000E-03	    1.600000E-03	    8.010000E+02	    0.000000E+00	    0.000000E+00	    0.000000E+00	    0.000000E+00	
    6.779881E-03	    1.014000E-02	    0.000000E+00	   -1.000000E+00	    1.600000E-03	    1.600000E-03	    8.010000E+02	    0.000000E+00	    0.000000E+00	    0.000000E+00	    0.000000E+00	
    7.446211E-03	    9.658410E-03	    0.000000E+00	   -1.000000E+00	    1.600000E-03	    1.600000E-03	    8.010000E+02	    0.000000E+00	    0.000000E+00	    0.000000E+00	    0.000000E+00	
    8.093172E-03	    9.119731E-03	    0.000000E+00	   -1.000000E+00	    1.600000E-03	    1.600000E-03	    8.010000E+02	    0.000000E+00	    0.000000E+00	    0.000000E+00	    0.000000E+00	
    8.709133E-03	    8.529478E-03	    0.000000E+00	   -1.000000E+00	    1.600000E-03	    1.600000E-03	    8.010000E+02	    0.000000E+00	    0.000000E+00	    0.000000E+00	    0.000000E+00	
    9.283258E-03	    7.896152E-03	    0.000000E+00	   -1.000000E+00	    1.600000E-03	    1.600000E-03	    8.010000E+02	    0.000000E+00	    0.000000E+00	    0.000000E+00	    0.000000E+00	
    9.806383E-03	    7.230933E-03	    0.000000E+00	   -1.000000E+00	    1.600000E-03	    1.600000E-03	    8.010000E+02	    0.000000E+00	    0.000000E+00	    0.000000E+00	    0.000000E+00	
    1.027176E-02	    6.547038E-03	    0.000000E+00	   -1.000000E+00	    1.600000E-03	    1.600000E-03	    8.010000E+02	    0.000000E+00	    0.000000E+00	    0.000000E+00	    0.000000E+00	
    1.067557E-02	    5.858817E-03	    0.000000E+00	   -1.000000E+00	    1.600000E-03	    1.600000E-03	    8.010000E+02	    0.000000E+00	    0.000000E+00	    0.000000E+00	    0.000000E+00	
    1.101707E-02	    5.180713E-03	    0.000000E+00	   -1.000000E+00	    1.600000E-03	    1.600000E-03	    8.010000E+02	    0.000000E+00	    0.000000E+00	    0.000000E+00	    0.000000E+00	
    1.129838E-02	    4.526229E-03	    0.000000E+00	   -1.000000E+00	    1.600000E-03	    1.600000E-03	    8.010000E+02	    0.000000E+00	    0.000000E+00	    0.000000E+00	    0.000000E+00	
    1.152405E-02	    3.907061E-03	    0.000000E+00	   -1.000000E+00	    1.600000E-03	    1.600000E-03	    8.010000E+02	    0.000000E+00	    0.000000E+00	    0.000000E+00	    0.000000E+00	
    1.170031E-02	    3.332485E-03	    0.000000E+00	   -1.000000E+00	    1.600000E-03	    1.600000E-03	    8.010000E+02	    0.000000E+00	    0.000000E+00	    0.000000E+00	    0.000000E+00	
    1.183435E-02	    2.809047E-03	    0.000000E+00	   -1.000000E+00	    1.600000E-03	    1.600000E-03	    8.010000E+02	    0.000000E+00	    0.000000E+00	    0.000000E+00	    0.000000E+00	
    1.193359E-02	    2.340538E-03	    0.000000E+00	   -1.000000E+00	    1.600000E-03	    1.600000E-03	    8.010000E+02	    0.000000E+00	    0.000000E+00	    0.000000E+00	    0.000000E+00	
    1.200513E-02	    1.928202E-03	    0.000000E+00	   -1.000000E+00	    1.600000E-03	    1.600000E-03	    8.010000E+02	    0.000000E+00	    0.000000E+00	    0.000000E+00	    0.000000E+00	
    1.205536E-02	    1.571099E-03	    0.000000E+00	   -1.000000E+00	    1.600000E-03	    1.600000E-03	    8.010000E+02	    0.000000E+00	    0.000000E+00	    0.000000E+00	    0.000000E+00	
    1.208970E-02	    1.266553E-03	    0.000000E+00	   -1.000000E+00	    1.600000E-03	    1.600000E-03	    8.010000E+02	    0.000000E+00	    0.000000E+00	    0.000000E+00	    0.000000E+00	
    1.211256E-02	    1.010627E-03	    0.000000E+00	   -1.000000E+00	    1.600000E-03	    1.600000E-03	    8.010000E+02	    0.000000E+00	    0.000000E+00	    0.000000E+00	    0.000000E+00	
    1.212738E-02	    7.985715E-04	    0.000000E+00	   -1.000000E+00	    1.600000E-03	    1.600000E-03	    8.010000E+02	    0.000000E+00	    0.000000E+00	    0.000000E+00	    0.000000E+00	
    1.213673E-02	    6.252171E-04	    0.000000E+00	   -1.000000E+00	    1.600000E-03	    1.600000E-03	    8.010000E+02	    0.000000E+00	    0.000000E+00	    0.000000E+00	    0.000000E+00	
    1.214247E-02	    4.853080E-04	    0.000000E+00	   -1.000000E+00	    1.600000E-03	    1.600000E-03	    8.010000E+02	    0.000000E+00	    0.000000E+00	    0.000000E+00	    0.000000E+00	
    1.214588E-02	    3.737554E-04	    0.000000E+00	   -1.000000E+00	    1.600000E-03	    1.600000E-03	    8.010000E+02	    0.000000E+00	    0.000000E+00	    0.000000E+00	    0.000000E+00	
    1.214786E-02	    2.858212E-04	    0.000000E+00	   -1.000000E+00	    1.600000E-03	    1.600000E-03	    8.010000E+02	    0.000000E+00	    0.000000E+00	    0.000000E+00	    0.000000E+00	
    1.214895E-02	    2.172353E-04	    0.000000E+00	   -1.000000E+00	    1.600000E-03	    1.600000E-03	    8.010000E+02	    0.000000E+00	    0.000000E+00	    0.000000E+00	    0.000000E+00	
    1.214953E-02	    1.642573E-04	    0.000000E+00	   -1.000000E+00	    1.600000E-03	    1.600000E-03	    8.010000E+02	    0.000000E+00	    0.000000E+00	    0.000000E+00	    0.000000E+00	
    1.214982E-02	    1.236912E-04	    0.000000E+00	   -1.000000E+00	    1.600000E-03	    1.600000E-03	    8.010000E+02	    0.000000E+00	    0.000000E+00	    0.000000E+00	    0.000000E+00	
    1.214995E-02	    9.286683E-05	    0.000000E+00	   -1.000000E+00	    1.600000E-03	    1.600000E-03	    8.010000E+02	    0.000000E+00	    0.000000E+00	    0.000000E+00	    0.000000E+00	
    1.214999E-02	    6.959839E-05	    0.000000E+00	   -1.000000E+00	    1.600000E-03	    1.600000E-03	    8.010000E+02	    0.000000E+00	    0.000000E+00	    0.000000E+00	    0.000000E+00	
    1.215000E-02	    6.023337E-05	    0.000000E+00	   -1.000000E+00	    1.600000E-03	    1.600000E-03	    8.010000E+02	    0.000000E+00	    0.000000E+00	    0.000000E+00	    0.000000E+00	
   -1.214976E-02	    6.023282E-05	    0.000000E+00	   -1.000000E+00	    1.600000E-03	    1.600000E-03	    8.010000E+02	    0.000000E+00	    0.000000E+00	    0.000000E+00	    0.000000E+00	
   -1.214971E-02	    6.959754E-05	    7.355676E-05	   -1.000000E+00	    1.600369E-03	    1.600000E-03	    8.010000E+02	    2.458872E-06	    2.360061E-03	    1.632997E+02	    6.812187E+04	
   -1.214957E-02	    9.286498E-05	    2.230307E-04	   -1.000000E+00	    1.600341E-03	    1.600000E-03	    8.010000E+02	    2.274506E-06	    1.134243E-03	    4.077555E+01	    3.527604E+05	
   -1.214932E-02	    1.236874E-04	    3.898283E-04	   -1.000000E+00	    1.600468E-03	    1.600000E-03	    8.010000E+02	    3.119930E-06	    1.203012E-03	    3.344030E+01	    6.074226E+05	
   -1.214887E-02	    1.642501E-04	    5.854472E-04	   -1.000000E+00	    1.600701E-03	    1.600000E-03	    8.010000E+02	    4.672667E-06	    1.530184E-03	    3.612413E+01	    7.767364E+05	
   -1.214807E-02	    2.172220E-04	    8.215656E-04	   -1.000000E+00	    1.601033E-03	    1.600000E-03	    8.010000E+02	    6.887137E-06	    1.900587E-03	    3.781043E+01	    8.743126E+05	
   -1.214670E-02	    2.857971E-04	    1.110368E-03	   -1.000000E+00	    1.601487E-03	    1.600000E-03	    8.010000E+02	    9.913636E-06	    2.274879E-03	    3.763210E+01	    9.222385E+05	
   -1.214437E-02	    3.737131E-04	    1.466145E-03	   -1.000000E+00	    1.602100E-03	    1.600000E-03	    8.010000E+02	    1.399935E-05	    2.652982E-03	    3.624397E+01	    9.398912E+05	
   -1.214051E-02	    4.852350E-04	    1.905455E-03	   -1.000000E+00	    1.602919E-03	    1.600000E-03	    8.010000E+02	    1.945804E-05	    3.039996E-03	    3.423907E+01	    9.410007E+05	
   -1.213421E-02	    6.250939E-04	    2.446614E-03	   -1.000000E+00	    1.603999E-03	    1.600000E-03	    8.010000E+02	    2.665935E-05	    3.438487E-03	    3.197130E+01	    9.339621E+05	
   -1.212416E-02	    7.983681E-04	    3.109064E-03	   -1.000000E+00	    1.605403E-03	    1.600000E-03	    8.010000E+02	    3.601962E-05	    3.847740E-03	    2.963107E+01	    9.234179E+05	
   -1.210849E-02	    1.010299E-03	    3.912633E-03	   -1.000000E+00	    1.607198E-03	    1.600000E-03	    8.010000E+02	    4.798767E-05	    4.264448E-03	    2.731939E+01	    9.117236E+05	
   -1.208461E-02	    1.266033E-03	    4.876558E-03	   -1.000000E+00	    1.609453E-03	    1.600000E-03	    8.010000E+02	    6.302325E-05	    4.683578E-03	    2.509168E+01	    8.999344E+05	
   -1.204906E-02	    1.570295E-03	    6.018245E-03	   -1.000000E+00	    1.612235E-03	    1.600000E-03	    8.010000E+02	    8.156827E-05	    5.099202E-03	    2.298043E+01	    8.883910E+05	
   -1.199743E-02	    1.926987E-03	    7.351767E-03	   -1.000000E+00	    1.615602E-03	    1.600000E-03	    8.010000E+02	    1.040116E-04	    5.505245E-03	    2.100615E+01	    8.770533E+05	
   -1.192430E-02	    2.338742E-03	    8.886199E-03	   -1.000000E+00	    1.619598E-03	    1.600000E-03	    8.010000E+02	    1.306501E-04	    5.896109E-03	    1.918212E+01	    8.656935E+05	
   -1.182330E-02	    2.806454E-03	    1.062390E-02	   -1.000000E+00	    1.624247E-03	    1.600000E-03	    8.010000E+02	    1.616481E-04	    6.267134E-03	    1.751630E+01	    8.540194E+05	
   -1.168735E-02	    3.328830E-03	    1.255895E-02	   -1.000000E+00	    1.629550E-03	    1.600000E-03	    8.010000E+02	    1.970008E-04	    6.614860E-03	    1.601210E+01	    8.417687E+05	
   -1.150909E-02	    3.902031E-03	    1.467600E-02	   -1.000000E+00	    1.635476E-03	    1.600000E-03	    8.010000E+02	    2.365037E-04	    6.937125E-03	    1.466885E+01	    8.287880E+05	
   -1.128139E-02	    4.519472E-03	    1.694971E-02	   -1.000000E+00	    1.641960E-03	    1.600000E-03	    8.010000E+02	    2.797363E-04	    7.232989E-03	    1.348223E+01	    8.150825E+05	
   -1.099811E-02	    5.171854E-03	    1.934509E-02	   -1.000000E+00	    1.648909E-03	    1.600000E-03	    8.010000E+02	    3.260601E-04	    7.502465E-03	    1.244472E+01	    8.008197E+05	
   -1.065480E-02	    5.847482E-03	    2.181878E-02	   -1.000000E+00	    1.656195E-03	    1.600000E-03	    8.010000E+02	    3.746364E-04	    7.746146E-03	    1.154613E+01	    7.862908E+05	
   -1.024943E-02	    6.532877E-03	    2.432141E-02	   -1.000000E+00	    1.663670E-03	    1.600000E-03	    8.010000E+02	    4.244659E-04	    7.964909E-03	    1.077442E+01	    7.718510E+05	
   -9.782843E-03	    7.213655E-03	    2.680080E-02	   -1.000000E+00	    1.671168E-03	    1.600000E-03	    8.010000E+02	    4.744510E-04	    8.159761E-03	    1.011669E+01	    7.578589E+05	
   -9.258930E-03	    7.875546E-03	    2.920565E-02	   -1.000000E+00	    1.678521E-03	    1.600000E-03	    8.010000E+02	    5.234743E-04	    8.331804E-03	    9.559997E+00	    7.446294E+05	
   -8.684484E-03	    8.505431E-03	    3.148927E-02	   -1.000000E+00	    1.685572E-03	    1.600000E-03	    8.010000E+02	    5.704832E-04	    8.482257E-03	    9.091907E+00	    7.324066E+05	
   -8.068687E-03	    9.092240E-03	    3.361258E-02	   -1.000000E+00	    1.692185E-03	    1.600000E-03	    8.010000E+02	    6.145656E-04	    8.612477E-03	    8.700874E+00	    7.213533E+05	
   -7.422356E-03	    9.627574E-03	    3.554632E-02	   -1.000000E+00	    1.698251E-03	    1.600000E-03	    8.010000E+02	    6.550070E-04	    8.723963E-03	    8.376387E+00	    7.115540E+05	
   -6.757081E-03	    1.010601E-02	    3.727195E-02	   -1.000000E+00	    1.703698E-03	    1.600000E-03	    8.010000E+02	    6.913212E-04	    8.818332E-03	    8.109014E+00	    7.030256E+05	
   -6.084369E-03	    1.052507E-02	    3.878148E-02	   -1.000000E+00	    1.708488E-03	    1.600000E-03	    8.010000E+02	    7.232538E-04	    8.897271E-03	    7.890381E+00	    6.957318E+05	
   -5.414922E-03	    1.088491E-02	    4.007626E-02	   -1.000000E+00	    1.712614E-03	    1.600000E-03	    8.010000E+02	    7.507628E-04	    8.962490E-03	    7.713113E+00	    6.895979E+05	
   -4.758116E-03	    1.118786E-02	    4.116529E-02	   -1.000000E+00	    1.716097E-03	    1.600000E-03	    8.010000E+02	    7.739827E-04	    9.015668E-03	    7.570762E+00	    6.845246E+05	
   -4.121693E-03	    1.143782E-02	    4.206312E-02	   -1.000000E+00	    1.718977E-03	    1.600000E-03	    8.010000E+02	    7.931816E-04	    9.058409E-03	    7.457722E+00	    6.803993E+05	
   -3.511654E-03	    1.163975E-02	    4.278792E-02	   -1.000000E+00	    1.721308E-03	    1.600000E-03	    8.010000E+02	    8.087167E-04	    9.092208E-03	    7.369150E+00	    6.771054E+05	
   -2.932318E-03	    1.179914E-02	    4.335967E-02	   -1.000000E+00	    1.723149E-03	    1.600000E-03	    8.010000E+02	    8.209942E-04	    9.118433E-03	    7.300883E+00	    6.745285E+05	
   -2.386473E-03	    1.192162E-02	    4.379876E-02	   -1.000000E+00	    1.724566E-03	    1.600000E-03	    8.010000E+02	    8.304369E-04	    9.138309E-03	    7.249366E+00	    6.725606E+05	
   -1.875602E-03	    1.201266E-02	    4.412492E-02	   -1.000000E+00	    1.725619E-03	    1.600000E-03	    8.010000E+02	    8.374596E-04	    9.152916E-03	    7.211575E+00	    6.711031E+05	
   -1.400126E-03	    1.207736E-02	    4.435654E-02	   -1.000000E+00	    1.726368E-03	    1.600000E-03	    8.010000E+02	    8.424520E-04	    9.163196E-03	    7.184951E+00	    6.700678E+05	
   -9.596348E-04	    1.212034E-02	    4.451024E-02	   -1.000000E+00	    1.726865E-03	    1.600000E-03	    8.010000E+02	    8.457685E-04	    9.169958E-03	    7.167344E+00	    6.693773E+05	
   -5.531055E-04	    1.214570E-02	    4.460069E-02	   -1.000000E+00	    1.727159E-03	    1.600000E-03	    8.010000E+02	    8.477235E-04	    9.173891E-03	    7.156950E+00	    6.689645E+05	
   -1.790842E-04	    1.215698E-02	    4.464058E-02	   -1.000000E+00	    1.727288E-03	    1.600000E-03	    8.010000E+02	    8.485899E-04	    9.175573E-03	    7.152264E+00	    6.687718E+05	
    1.790842E-04	    1.215698E-02	    4.464058E-02	   -1.000000E+00	    1.727288E-03	    1.600000E-03	    8.010000E+02	    8.485899E-04	    9.175573E-03	    7.152264E+00	    6.687718E+05	
    5.531055E-04	    1.214570E-02	    4.460069E-02	   -1.000000E+00	    1.727159E-03	    1.600000E-03	    8.010000E+02	    8.477235E-04	    9.173891E-03	    7.156950E+00	    6.689645E+05	
    9.596348E-04	    1.212034E-02	    4.451024E-02	   -1.000000E+00	    1.726865E-03	    1.600000E-03	    8.010000E+02	    8.457685E-04	    9.169959E-03	    7.167344E+00	    6.693773E+05	
    1.400126E-03	    1.207736E-02	    4.435654E-02	   -1.000000E+00	    1.726368E-03	    1.600000E-03	    8.010000E+02	    8.424520E-04	    9.163197E-03	    7.184952E+00	    6.700678E+05	
    1.875602E-03	    1.201266E-02	    4.412492E-02	   -1.000000E+00	    1.725619E-03	    1.600000E-03	    8.010000E+02	    8.374597E-04	    9.152917E-03	    7.211575E+00	    6.711031E+05	
    2.386473E-03	    1.192162E-02	    4.379876E-02	   -1.000000E+00	    1.724566E-03	    1.600000E-03	    8.010000E+02	    8.304370E-04	    9.138310E-03	    7.249367E+00	    6.725607E+05	
    2.932318E-03	    1.179914E-02	    4.335968E-02	   -1.000000E+00	    1.723149E-03	    1.600000E-03	    8.010000E+02	    8.209942E-04	    9.118434E-03	    7.300885E+00	    6.745286E+05	
    3.511654E-03	    1.163975E-02	    4.278793E-02	   -1.000000E+00	    1.721308E-03	    1.600000E-03	    8.010000E+02	    8.087167E-04	    9.092210E-03	    7.369151E+00	    6.771056E+05	
    4.121693E-03	    1.143782E-02	    4.206313E-02	   -1.000000E+00	    1.718977E-03	    1.600000E-03	    8.010000E+02	    7.931817E-04	    9.058410E-03	    7.457724E+00	    6.803995E+05	
    4.758116E-03	    1.118786E-02	    4.116529E-02	   -1.000000E+00	    1.716097E-03	    1.600000E-03	    8.010000E+02	    7.739828E-04	    9.015670E-03	    7.570764E+00	    6.845248E+05	
    5.414922E-03	    1.088491E-02	    4.007627E-02	   -1.000000E+00	    1.712614E-03	    1.600000E-03	    8.010000E+02	    7.507628E-04	    8.962492E-03	    7.713116E+00	    6.895982E+05	
    6.084369E-03	    1.052507E-02	    3.878148E-02	   -1.000000E+00	    1.708488E-03	    1.600000E-03	    8.010000E+02	    7.232539E-04	    8.897273E-03	    7.890384E+00	    6.957321E+05	
    6.757081E-03	    1.010601E-02	    3.727196E-02	   -1.000000E+00	    1.703698E-03	    1.600000E-03	    8.010000E+02	    6.913213E-04	    8.818334E-03	    8.109017E+00	    7.030259E+05	
    7.422356E-03	    9.627574E-03	    3.554632E-02	   -1.000000E+00	    1.698251E-03	    1.600000E-03	    8.010000E+02	    6.550071E-04	    8.723966E-03	    8.376391E+00	    7.115543E+05	
    8.068687E-03	    9.092240E-03	    3.361259E-02	   -1.000000E+00	    1.692185E-03	    1.600000E-03	    8.010000E+02	    6.145657E-04	    8.612480E-03	    8.700879E+00	    7.213537E+05	
    8.684484E-03	    8.505431E-03	    3.148928E-02	   -1.000000E+00	    1.685572E-03	    1.600000E-03	    8.010000E+02	    5.704833E-04	    8.482260E-03	    9.091912E+00	    7.324071E+05	
    9.258930E-03	    7.875546E-03	    2.920566E-02	   -1.000000E+00	    1.678521E-03	    1.600000E-03	    8.010000E+02	    5.234744E-04	    8.331808E-03	    9.560003E+00	    7.446300E+05	
    9.782843E-03	    7.213655E-03	    2.680081E-02	   -1.000000E+00	    1.671168E-03	    1.600000E-03	    8.010000E+02	    4.744511E-04	    8.159765E-03	    1.011670E+01	    7.578595E+05	
    1.024943E-02	    6.532877E-03	    2.432142E-02	   -1.000000E+00	    1.663670E-03	    1.600000E-03	    8.010000E+02	    4.244660E-04	    7.964913E-03	    1.077443E+01	    7.718518E+05	
    1.065480E-02	    5.847482E-03	    2.181880E-02	   -1.000000E+00	    1.656195E-03	    1.600000E-03	    8.010000E+02	    3.746365E-04	    7.746150E-03	    1.154614E+01	    7.862917E+05	
    1.099811E-02	    5.171854E-03	    1.934510E-02	   -1.000000E+00	    1.648909E-03	    1.600000E-03	    8.010000E+02	    3.260602E-04	    7.502469E-03	    1.244473E+01	    8.008207E+05	
    1.128139E-02	    4.519472E-03	    1.694972E-02	   -1.000000E+00	    1.641960E-03	    1.600000E-03	    8.010000E+02	    2.797364E-04	    7.232994E-03	    1.348225E+01	    8.150838E+05	
    1.150909E-02	    3.902031E-03	    1.467601E-02	   -1.000000E+00	    1.635476E-03	    1.600000E-03	    8.010000E+02	    2.365038E-04	    6.937129E-03	    1.466886E+01	    8.287894E+05	
    1.168735E-02	    3.328830E-03	    1.255897E-02	   -1.000000E+00	    1.629550E-03	    1.600000E-03	    8.010000E+02	    1.970009E-04	    6.614865E-03	    1.601212E+01	    8.417705E+05	
    1.182330E-02	    2.806454E-03	    1.062392E-02	   -1.000000E+00	    1.624247E-03	    1.600000E-03	    8.010000E+02	    1.616482E-04	    6.267139E-03	    1.751632E+01	    8.540216E+05	
    1.192430E-02	    2.338742E-03	    8.886214E-03	   -1.000000E+00	    1.619598E-03	    1.600000E-03	    8.010000E+02	    1.306501E-04	    5.896114E-03	    1.918214E+01	    8.656963E+05	
    1.199743E-02	    1.926987E-03	    7.351783E-03	   -1.000000E+00	    1.615602E-03	    1.600000E-03	    8.010000E+02	    1.040116E-04	    5.505249E-03	    2.100618E+01	    8.770570E+05	
    1.204906E-02	    1.570295E-03	    6.018261E-03	   -1.000000E+00	    1.612235E-03	    1.600000E-03	    8.010000E+02	    8.156829E-05	    5.099205E-03	    2.298045E+01	    8.883959E+05	
    1.208461E-02	    1.266033E-03	    4.876576E-03	   -1.000000E+00	    1.609453E-03	    1.600000E-03	    8.010000E+02	    6.302326E-05	    4.683579E-03	    2.509169E+01	    8.999409E+05	
    1.210849E-02	    1.010299E-03	    3.912652E-03	   -1.000000E+00	    1.607198E-03	    1.600000E-03	    8.010000E+02	    4.798766E-05	    4.264447E-03	    2.731938E+01	    9.117325E+05	
    1.212416E-02	    7.983681E-04	    3.109084E-03	   -1.000000E+00	    1.605403E-03	    1.600000E-03	    8.010000E+02	    3.601960E-05	    3.847735E-03	    2.963101E+01	    9.234301E+05	
    1.213421E-02	    6.250939E-04	    2.446635E-03	   -1.000000E+00	    1.603999E-03	    1.600000E-03	    8.010000E+02	    2.665930E-05	    3.438475E-03	    3.197112E+01	    9.339787E+05	
    1.214051E-02	    4.852350E-04	    1.905478E-03	   -1.000000E+00	    1.602919E-03	    1.600000E-03	    8.010000E+02	    1.945796E-05	    3.039972E-03	    3.423866E+01	    9.410229E+05	
    1.214437E-02	    3.737131E-04	    1.466168E-03	   -1.000000E+00	    1.602100E-03	    1.600000E-03	    8.010000E+02	    1.399924E-05	    2.652939E-03	    3.624310E+01	    9.399208E+05	
    1.214670E-02	    2.857971E-04	    1.110391E-03	   -1.000000E+00	    1.601487E-03	    1.600000E-03	    8.010000E+02	    9.913487E-06	    2.274810E-03	    3.763040E+01	    9.222773E+05	