Title="Fields"
Variables="X""Y""Velocity""Phi""Effective Viscosity""Dynamic Viscosity""Density""Eddy Viscosity""K""Omega""S""F1SST""distance""GEN"
Zone I=52 J=52 F=POINT
   -1.204675E-02	    5.917577E-05	    0.000000E+00	    0.000000E+00	    1.000000E-03	    1.000000E-03	    1.000000E+03	    0.000000E+00	    0.000000E+00	    5.165594E+08	    0.000000E+00	    1.000000E+00	    0.000000E+00	    0.000000E+00	
   -1.204876E-02	    7.456358E-05	    0.000000E+00	    0.000000E+00	    1.000000E-03	    1.000000E-03	    1.000000E+03	    0.000000E+00	    0.000000E+00	    5.165594E+08	    0.000000E+00	    1.000000E+00	    0.000000E+00	    0.000000E+00	
   -1.205434E-02	    1.181094E-04	    0.000000E+00	    0.000000E+00	    1.000000E-03	    1.000000E-03	    1.000000E+03	    0.000000E+00	    0.000000E+00	    2.058812E+08	    0.000000E+00	    1.000000E+00	    0.000000E+00	    0.000000E+00	
   -1.206268E-02	    1.857776E-04	    0.000000E+00	    0.000000E+00	    1.000000E-03	    1.000000E-03	    1.000000E+03	    0.000000E+00	    0.000000E+00	    8.321792E+07	    0.000000E+00	    1.000000E+00	    0.000000E+00	    0.000000E+00	
   -1.207467E-02	    2.888934E-04	    0.000000E+00	    0.000000E+00	    1.000000E-03	    1.000000E-03	    1.000000E+03	    0.000000E+00	    0.000000E+00	    3.441563E+07	    0.000000E+00	    1.000000E+00	    0.000000E+00	    0.000000E+00	
   -1.209085E-02	    4.423948E-04	    0.000000E+00	    0.000000E+00	    1.000000E-03	    1.000000E-03	    1.000000E+03	    0.000000E+00	    0.000000E+00	    1.467750E+07	    0.000000E+00	    1.000000E+00	    0.000000E+00	    0.000000E+00	
   -1.211083E-02	    6.649012E-04	    0.000000E+00	    0.000000E+00	    1.000000E-03	    1.000000E-03	    1.000000E+03	    0.000000E+00	    0.000000E+00	    6.498559E+06	    0.000000E+00	    1.000000E+00	    0.000000E+00	    0.000000E+00	
   -1.213197E-02	    9.781239E-04	    0.000000E+00	    0.000000E+00	    1.000000E-03	    1.000000E-03	    1.000000E+03	    0.000000E+00	    0.000000E+00	    3.003496E+06	    0.000000E+00	    1.000000E+00	    0.000000E+00	    0.000000E+00	
   -1.214774E-02	    1.405351E-03	    0.000000E+00	    0.000000E+00	    1.000000E-03	    1.000000E-03	    1.000000E+03	    0.000000E+00	    0.000000E+00	    1.455321E+06	    0.000000E+00	    1.000000E+00	    0.000000E+00	    0.000000E+00	
   -1.214554E-02	    1.968785E-03	    0.000000E+00	    0.000000E+00	    1.000000E-03	    1.000000E-03	    1.000000E+03	    0.000000E+00	    0.000000E+00	    7.417924E+05	    0.000000E+00	    1.000000E+00	    0.000000E+00	    0.000000E+00	
   -1.210490E-02	    2.685624E-03	    0.000000E+00	    0.000000E+00	    1.000000E-03	    1.000000E-03	    1.000000E+03	    0.000000E+00	    0.000000E+00	    3.988233E+05	    0.000000E+00	    1.000000E+00	    0.000000E+00	    0.000000E+00	
   -1.199681E-02	    3.563072E-03	    0.000000E+00	    0.000000E+00	    1.000000E-03	    1.000000E-03	    1.000000E+03	    0.000000E+00	    0.000000E+00	    2.267034E+05	    0.000000E+00	    1.000000E+00	    0.000000E+00	    0.000000E+00	
   -1.178562E-02	    4.593029E-03	    0.000000E+00	    0.000000E+00	    1.000000E-03	    1.000000E-03	    1.000000E+03	    0.000000E+00	    0.000000E+00	    1.365182E+05	    0.000000E+00	    1.000000E+00	    0.000000E+00	    0.000000E+00	
   -1.143437E-02	    5.748035E-03	    0.000000E+00	    0.000000E+00	    1.000000E-03	    1.000000E-03	    1.000000E+03	    0.000000E+00	    0.000000E+00	    8.723183E+04	    0.000000E+00	    1.000000E+00	    0.000000E+00	    0.000000E+00	
   -1.091317E-02	    6.980691E-03	    0.000000E+00	    0.000000E+00	    1.000000E-03	    1.000000E-03	    1.000000E+03	    0.000000E+00	    0.000000E+00	    5.919453E+04	    0.000000E+00	    1.000000E+00	    0.000000E+00	    0.000000E+00	
   -1.020845E-02	    8.228419E-03	    0.000000E+00	    0.000000E+00	    1.000000E-03	    1.000000E-03	    1.000000E+03	    0.000000E+00	    0.000000E+00	    4.264259E+04	    0.000000E+00	    1.000000E+00	    0.000000E+00	    0.000000E+00	
   -9.329318E-03	    9.423505E-03	    0.000000E+00	    0.000000E+00	    1.000000E-03	    1.000000E-03	    1.000000E+03	    0.000000E+00	    0.000000E+00	    3.254419E+04	    0.000000E+00	    1.000000E+00	    0.000000E+00	    0.000000E+00	
   -8.307813E-03	    1.050560E-02	    0.000000E+00	    0.000000E+00	    1.000000E-03	    1.000000E-03	    1.000000E+03	    0.000000E+00	    0.000000E+00	    2.621116E+04	    0.000000E+00	    1.000000E+00	    0.000000E+00	    0.000000E+00	
   -7.192486E-03	    1.143216E-02	    0.000000E+00	    0.000000E+00	    1.000000E-03	    1.000000E-03	    1.000000E+03	    0.000000E+00	    0.000000E+00	    2.215568E+04	    0.000000E+00	    1.000000E+00	    0.000000E+00	    0.000000E+00	
   -6.038083E-03	    1.218322E-02	    0.000000E+00	    0.000000E+00	    1.000000E-03	    1.000000E-03	    1.000000E+03	    0.000000E+00	    0.000000E+00	    1.952470E+04	    0.000000E+00	    1.000000E+00	    0.000000E+00	    0.000000E+00	
   -4.895465E-03	    1.275990E-02	    0.000000E+00	    0.000000E+00	    1.000000E-03	    1.000000E-03	    1.000000E+03	    0.000000E+00	    0.000000E+00	    1.781240E+04	    0.000000E+00	    1.000000E+00	    0.000000E+00	    0.000000E+00	
   -3.804883E-03	    1.317865E-02	    0.000000E+00	    0.000000E+00	    1.000000E-03	    1.000000E-03	    1.000000E+03	    0.000000E+00	    0.000000E+00	    1.670763E+04	    0.000000E+00	    1.000000E+00	    0.000000E+00	    0.000000E+00	
   -2.793484E-03	    1.346429E-02	    0.000000E+00	    0.000000E+00	    1.000000E-03	    1.000000E-03	    1.000000E+03	    0.000000E+00	    0.000000E+00	    1.601259E+04	    0.000000E+00	    1.000000E+00	    0.000000E+00	    0.000000E+00	
   -1.876096E-03	    1.364406E-02	    0.000000E+00	    0.000000E+00	    1.000000E-03	    1.000000E-03	    1.000000E+03	    0.000000E+00	    0.000000E+00	    1.559742E+04	    0.000000E+00	    1.000000E+00	    0.000000E+00	    0.000000E+00	
   -1.057769E-03	    1.374365E-02	    0.000000E+00	    0.000000E+00	    1.000000E-03	    1.000000E-03	    1.000000E+03	    0.000000E+00	    0.000000E+00	    1.537443E+04	    0.000000E+00	    1.000000E+00	    0.000000E+00	    0.000000E+00	
   -3.367286E-04	    1.378512E-02	    0.000000E+00	    0.000000E+00	    1.000000E-03	    1.000000E-03	    1.000000E+03	    0.000000E+00	    0.000000E+00	    1.528301E+04	    0.000000E+00	    1.000000E+00	    0.000000E+00	    0.000000E+00	
    3.367286E-04	    1.378512E-02	    0.000000E+00	    0.000000E+00	    1.000000E-03	    1.000000E-03	    1.000000E+03	    0.000000E+00	    0.000000E+00	    1.528301E+04	    0.000000E+00	    1.000000E+00	    0.000000E+00	    0.000000E+00	
    1.057769E-03	    1.374365E-02	    0.000000E+00	    0.000000E+00	    1.000000E-03	    1.000000E-03	    1.000000E+03	    0.000000E+00	    0.000000E+00	    1.537443E+04	    0.000000E+00	    1.000000E+00	    0.000000E+00	    0.000000E+00	
    1.876096E-03	    1.364406E-02	    0.000000E+00	    0.000000E+00	    1.000000E-03	    1.000000E-03	    1.000000E+03	    0.000000E+00	    0.000000E+00	    1.559742E+04	    0.000000E+00	    1.000000E+00	    0.000000E+00	    0.000000E+00	
    2.793484E-03	    1.346429E-02	    0.000000E+00	    0.000000E+00	    1.000000E-03	    1.000000E-03	    1.000000E+03	    0.000000E+00	    0.000000E+00	    1.601259E+04	    0.000000E+00	    1.000000E+00	    0.000000E+00	    0.000000E+00	
    3.804883E-03	    1.317865E-02	    0.000000E+00	    0.000000E+00	    1.000000E-03	    1.000000E-03	    1.000000E+03	    0.000000E+00	    0.000000E+00	    1.670763E+04	    0.000000E+00	    1.000000E+00	    0.000000E+00	    0.000000E+00	
    4.895465E-03	    1.275990E-02	    0.000000E+00	    0.000000E+00	    1.000000E-03	    1.000000E-03	    1.000000E+03	    0.000000E+00	    0.000000E+00	    1.781240E+04	    0.000000E+00	    1.000000E+00	    0.000000E+00	    0.000000E+00	
    6.038083E-03	    1.218322E-02	    0.000000E+00	    0.000000E+00	    1.000000E-03	    1.000000E-03	    1.000000E+03	    0.000000E+00	    0.000000E+00	    1.952470E+04	    0.000000E+00	    1.000000E+00	    0.000000E+00	    0.000000E+00	
    7.192486E-03	    1.143216E-02	    0.000000E+00	    0.000000E+00	    1.000000E-03	    1.000000E-03	    1.000000E+03	    0.000000E+00	    0.000000E+00	    2.215568E+04	    0.000000E+00	    1.000000E+00	    0.000000E+00	    0.000000E+00	
    8.307813E-03	    1.050560E-02	    0.000000E+00	    0.000000E+00	    1.000000E-03	    1.000000E-03	    1.000000E+03	    0.000000E+00	    0.000000E+00	    2.621116E+04	    0.000000E+00	    1.000000E+00	    0.000000E+00	    0.000000E+00	
    9.329318E-03	    9.423505E-03	    0.000000E+00	    0.000000E+00	    1.000000E-03	    1.000000E-03	    1.000000E+03	    0.000000E+00	    0.000000E+00	    3.254419E+04	    0.000000E+00	    1.000000E+00	    0.000000E+00	    0.000000E+00	
    1.020845E-02	    8.228419E-03	    0.000000E+00	    0.000000E+00	    1.000000E-03	    1.000000E-03	    1.000000E+03	    0.000000E+00	    0.000000E+00	    4.264259E+04	    0.000000E+00	    1.000000E+00	    0.000000E+00	    0.000000E+00	
    1.091317E-02	    6.980691E-03	    0.000000E+00	    0.000000E+00	    1.000000E-03	    1.000000E-03	    1.000000E+03	    0.000000E+00	    0.000000E+00	    5.919453E+04	    0.000000E+00	    1.000000E+00	    0.000000E+00	    0.000000E+00	
    1.143437E-02	    5.748035E-03	    0.000000E+00	    0.000000E+00	    1.000000E-03	    1.000000E-03	    1.000000E+03	    0.000000E+00	    0.000000E+00	    8.723183E+04	    0.000000E+00	    1.000000E+00	    0.000000E+00	    0.000000E+00	
    1.178562E-02	    4.593029E-03	    0.000000E+00	    0.000000E+00	    1.000000E-03	    1.000000E-03	    1.000000E+03	    0.000000E+00	    0.000000E+00	    1.365182E+05	    0.000000E+00	    1.000000E+00	    0.000000E+00	    0.000000E+00	
    1.199681E-02	    3.563072E-03	    0.000000E+00	    0.000000E+00	    1.000000E-03	    1.000000E-03	    1.000000E+03	    0.000000E+00	    0.000000E+00	    2.267034E+05	    0.000000E+00	    1.000000E+00	    0.000000E+00	    0.000000E+00	
    1.210490E-02	    2.685624E-03	    0.000000E+00	    0.000000E+00	    1.000000E-03	    1.000000E-03	    1.000000E+03	    0.000000E+00	    0.000000E+00	    3.988233E+05	    0.000000E+00	    1.000000E+00	    0.000000E+00	    0.000000E+00	
    1.214554E-02	    1.968785E-03	    0.000000E+00	    0.000000E+00	    1.000000E-03	    1.000000E-03	    1.000000E+03	    0.000000E+00	    0.000000E+00	    7.417924E+05	    0.000000E+00	    1.000000E+00	    0.000000E+00	    0.000000E+00	
    1.214774E-02	    1.405351E-03	    0.000000E+00	    0.000000E+00	    1.000000E-03	    1.000000E-03	    1.000000E+03	    0.000000E+00	    0.000000E+00	    1.455321E+06	    0.000000E+00	    1.000000E+00	    0.000000E+00	    0.000000E+00	
    1.213197E-02	    9.781239E-04	    0.000000E+00	    0.000000E+00	    1.000000E-03	    1.000000E-03	    1.000000E+03	    0.000000E+00	    0.000000E+00	    3.003496E+06	    0.000000E+00	    1.000000E+00	    0.000000E+00	    0.000000E+00	
    1.211083E-02	    6.649012E-04	    0.000000E+00	    0.000000E+00	    1.000000E-03	    1.000000E-03	    1.000000E+03	    0.000000E+00	    0.000000E+00	    6.498559E+06	    0.000000E+00	    1.000000E+00	    0.000000E+00	    0.000000E+00	
    1.209085E-02	    4.423948E-04	    0.000000E+00	    0.000000E+00	    1.000000E-03	    1.000000E-03	    1.000000E+03	    0.000000E+00	    0.000000E+00	    1.467750E+07	    0.000000E+00	    1.000000E+00	    0.000000E+00	    0.000000E+00	
    1.207467E-02	    2.888934E-04	    0.000000E+00	    0.000000E+00	    1.000000E-03	    1.000000E-03	    1.000000E+03	    0.000000E+00	    0.000000E+00	    3.441563E+07	    0.000000E+00	    1.000000E+00	    0.000000E+00	    0.000000E+00	
    1.206268E-02	    1.857776E-04	    0.000000E+00	    0.000000E+00	    1.000000E-03	    1.000000E-03	    1.000000E+03	    0.000000E+00	    0.000000E+00	    8.321792E+07	    0.000000E+00	    1.000000E+00	    0.000000E+00	    0.000000E+00	
    1.205434E-02	    1.181094E-04	    0.000000E+00	    0.000000E+00	    1.000000E-03	    1.000000E-03	    1.000000E+03	    0.000000E+00	    0.000000E+00	    2.058812E+08	    0.000000E+00	    1.000000E+00	    0.000000E+00	    0.000000E+00	
    1.204876E-02	    7.456358E-05	    0.000000E+00	    0.000000E+00	    1.000000E-03	    1.000000E-03	    1.000000E+03	    0.000000E+00	    0.000000E+00	    5.165594E+08	    0.000000E+00	    1.000000E+00	    0.000000E+00	    0.000000E+00	
    1.204675E-02	    5.917577E-05	    0.000000E+00	    0.000000E+00	    1.000000E-03	    1.000000E-03	    1.000000E+03	    0.000000E+00	    0.000000E+00	    0.000000E+00	    0.000000E+00	    1.000000E+00	    0.000000E+00	    0.000000E+00	
   -1.204631E-02	    5.923158E-05	    0.000000E+00	    0.000000E+00	    1.000000E-03	    1.000000E-03	    1.000000E+03	    0.000000E+00	    0.000000E+00	    0.000000E+00	    0.000000E+00	    1.000000E+00	    0.000000E+00	    0.000000E+00	
   -1.204821E-02	    7.463320E-05	    3.740610E-04	   -1.000000E+00	    1.600000E-03	    1.600000E-03	    8.010000E+02	    1.730709E-14	    1.116123E-08	    5.165594E+08	    2.988416E+05	    1.000000E+00	    5.561969E-07	    2.730473E+02	
   -1.205346E-02	    1.182165E-04	    9.114741E-04	   -1.000000E+00	    1.600000E-03	    1.600000E-03	    8.010000E+02	    1.058772E-13	    2.721365E-08	    2.058812E+08	    7.065307E+05	    1.000000E+00	    8.810090E-07	    4.140700E+02	
   -1.206131E-02	    1.859383E-04	    1.609316E-03	   -1.000000E+00	    1.600000E-03	    1.600000E-03	    8.010000E+02	    8.183498E-13	    8.502043E-08	    8.321792E+07	    8.901675E+05	    1.000000E+00	    1.385735E-06	    5.223231E+02	
   -1.207253E-02	    2.891250E-04	    2.573084E-03	   -1.000000E+00	    1.600000E-03	    1.600000E-03	    8.010000E+02	    5.078495E-12	    2.182018E-07	    3.441563E+07	    9.409827E+05	    1.000000E+00	    2.154819E-06	    5.532969E+02	
   -1.208757E-02	    4.427077E-04	    3.932710E-03	   -1.000000E+00	    1.600000E-03	    1.600000E-03	    8.010000E+02	    2.802915E-11	    5.136051E-07	    1.467750E+07	    9.372975E+05	    1.000000E+00	    3.299611E-06	    5.533219E+02	
   -1.210588E-02	    6.652807E-04	    5.834986E-03	   -1.000000E+00	    1.600000E-03	    1.600000E-03	    8.010000E+02	    1.410320E-10	    1.144201E-06	    6.498559E+06	    9.133259E+05	    1.000000E+00	    4.958841E-06	    5.425345E+02	
   -1.212469E-02	    9.784940E-04	    8.439827E-03	   -1.000000E+00	    1.600000E-03	    1.600000E-03	    8.010000E+02	    6.498393E-10	    2.436691E-06	    3.003496E+06	    8.827923E+05	    1.000000E+00	    7.294159E-06	    5.292735E+02	
   -1.213726E-02	    1.405514E-03	    1.193102E-02	   -1.000000E+00	    1.600000E-03	    1.600000E-03	    8.010000E+02	    2.749590E-09	    4.995676E-06	    1.455321E+06	    8.543771E+05	    1.000000E+00	    1.047875E-05	    5.191021E+02	
   -1.213087E-02	    1.968333E-03	    1.646674E-02	   -1.000000E+00	    1.600002E-03	    1.600000E-03	    8.010000E+02	    1.063796E-08	    9.851632E-06	    7.417924E+05	    8.289428E+05	    1.000000E+00	    1.467735E-05	    5.128178E+02	
   -1.208497E-02	    2.683827E-03	    2.214414E-02	   -1.000000E+00	    1.600007E-03	    1.600000E-03	    8.010000E+02	    3.739395E-08	    1.861870E-05	    3.988233E+05	    8.052228E+05	    1.000000E+00	    2.001701E-05	    5.097203E+02	
   -1.197061E-02	    3.558773E-03	    2.897760E-02	   -1.000000E+00	    1.600021E-03	    1.600000E-03	    8.010000E+02	    1.187403E-07	    3.360652E-05	    2.267034E+05	    7.828214E+05	    1.000000E+00	    2.654983E-05	    5.093867E+02	
   -1.175246E-02	    4.584593E-03	    3.690508E-02	   -1.000000E+00	    1.600061E-03	    1.600000E-03	    8.010000E+02	    3.395325E-07	    5.786811E-05	    1.365182E+05	    7.633452E+05	    1.000000E+00	    3.421363E-05	    5.126303E+02	
   -1.139414E-02	    5.733421E-03	    4.565406E-02	   -1.000000E+00	    1.600156E-03	    1.600000E-03	    8.010000E+02	    8.672737E-07	    9.444928E-05	    8.723183E+04	    7.446379E+05	    1.000000E+00	    4.280217E-05	    5.176591E+02	
   -1.086657E-02	    6.957694E-03	    5.489262E-02	   -1.000000E+00	    1.600355E-03	    1.600000E-03	    8.010000E+02	    1.970628E-06	    1.456310E-04	    5.919453E+04	    7.278055E+05	    1.000000E+00	    5.196143E-05	    5.244154E+02	
   -1.015711E-02	    8.195057E-03	    6.402694E-02	   -1.000000E+00	    1.600711E-03	    1.600000E-03	    8.010000E+02	    3.949912E-06	    2.102803E-04	    4.264259E+04	    7.092566E+05	    1.000000E+00	    6.122565E-05	    5.294098E+02	
   -9.275626E-03	    9.378448E-03	    7.279647E-02	   -1.000000E+00	    1.601272E-03	    1.600000E-03	    8.010000E+02	    7.067913E-06	    2.871654E-04	    3.254419E+04	    6.941202E+05	    1.000000E+00	    7.009240E-05	    5.366996E+02	
   -8.254546E-03	    1.044847E-02	    8.074907E-02	   -1.000000E+00	    1.602037E-03	    1.600000E-03	    8.010000E+02	    1.131591E-05	    3.702912E-04	    2.621116E+04	    6.810153E+05	    1.000000E+00	    7.811526E-05	    5.442948E+02	
   -7.142330E-03	    1.136356E-02	    8.751370E-02	   -1.000000E+00	    1.602936E-03	    1.600000E-03	    8.010000E+02	    1.630880E-05	    4.511017E-04	    2.215568E+04	    6.689456E+05	    1.000000E+00	    8.498074E-05	    5.501347E+02	
   -5.993232E-03	    1.210457E-02	    9.277890E-02	   -1.000000E+00	    1.603835E-03	    1.600000E-03	    8.010000E+02	    2.130284E-05	    5.192654E-04	    1.952470E+04	    6.561445E+05	    1.000000E+00	    9.054299E-05	    5.512277E+02	
   -4.857393E-03	    1.267306E-02	    9.683860E-02	   -1.000000E+00	    1.604666E-03	    1.600000E-03	    8.010000E+02	    2.592247E-05	    5.764561E-04	    1.781240E+04	    6.467090E+05	    1.000000E+00	    9.481206E-05	    5.528422E+02	
   -3.774330E-03	    1.308562E-02	    9.979014E-02	   -1.000000E+00	    1.605356E-03	    1.600000E-03	    8.010000E+02	    2.975580E-05	    6.206601E-04	    1.670763E+04	    6.399451E+05	    1.000000E+00	    9.791107E-05	    5.543036E+02	
   -2.770570E-03	    1.336692E-02	    1.018026E-01	   -1.000000E+00	    1.605872E-03	    1.600000E-03	    8.010000E+02	    3.261983E-05	    6.520947E-04	    1.601259E+04	    6.353346E+05	    1.000000E+00	    1.000246E-04	    5.553894E+02	
   -1.860504E-03	    1.354392E-02	    1.030674E-01	   -1.000000E+00	    1.606216E-03	    1.600000E-03	    8.010000E+02	    3.453064E-05	    6.723956E-04	    1.559742E+04	    6.324177E+05	    1.000000E+00	    1.013545E-04	    5.560888E+02	
   -1.048914E-03	    1.364194E-02	    1.037661E-01	   -1.000000E+00	    1.606413E-03	    1.600000E-03	    8.010000E+02	    3.562534E-05	    6.837944E-04	    1.537443E+04	    6.307809E+05	    1.000000E+00	    1.020912E-04	    5.564653E+02	
   -3.339012E-04	    1.368276E-02	    1.040539E-01	   -1.000000E+00	    1.606496E-03	    1.600000E-03	    8.010000E+02	    3.608700E-05	    6.885370E-04	    1.528301E+04	    6.300658E+05	    1.000000E+00	    1.023979E-04	    5.565914E+02	
    3.339012E-04	    1.368276E-02	    1.040539E-01	   -1.000000E+00	    1.606496E-03	    1.600000E-03	    8.010000E+02	    3.608700E-05	    6.885370E-04	    1.528301E+04	    6.300658E+05	    1.000000E+00	    1.023979E-04	    5.565914E+02	
    1.048914E-03	    1.364194E-02	    1.037661E-01	   -1.000000E+00	    1.606413E-03	    1.600000E-03	    8.010000E+02	    3.562534E-05	    6.837944E-04	    1.537443E+04	    6.307809E+05	    1.000000E+00	    1.020912E-04	    5.564653E+02	
    1.860504E-03	    1.354392E-02	    1.030674E-01	   -1.000000E+00	    1.606216E-03	    1.600000E-03	    8.010000E+02	    3.453064E-05	    6.723956E-04	    1.559742E+04	    6.324177E+05	    1.000000E+00	    1.013545E-04	    5.560888E+02	
    2.770570E-03	    1.336692E-02	    1.018026E-01	   -1.000000E+00	    1.605872E-03	    1.600000E-03	    8.010000E+02	    3.261983E-05	    6.520947E-04	    1.601259E+04	    6.353346E+05	    1.000000E+00	    1.000246E-04	    5.553894E+02	
    3.774330E-03	    1.308562E-02	    9.979014E-02	   -1.000000E+00	    1.605356E-03	    1.600000E-03	    8.010000E+02	    2.975580E-05	    6.206601E-04	    1.670763E+04	    6.399451E+05	    1.000000E+00	    9.791107E-05	    5.543036E+02	
    4.857393E-03	    1.267306E-02	    9.683860E-02	   -1.000000E+00	    1.604666E-03	    1.600000E-03	    8.010000E+02	    2.592247E-05	    5.764561E-04	    1.781240E+04	    6.467090E+05	    1.000000E+00	    9.481206E-05	    5.528422E+02	
    5.993232E-03	    1.210457E-02	    9.277890E-02	   -1.000000E+00	    1.603835E-03	    1.600000E-03	    8.010000E+02	    2.130284E-05	    5.192654E-04	    1.952470E+04	    6.561445E+05	    1.000000E+00	    9.054299E-05	    5.512277E+02	
    7.142330E-03	    1.136356E-02	    8.751370E-02	   -1.000000E+00	    1.602936E-03	    1.600000E-03	    8.010000E+02	    1.630880E-05	    4.511017E-04	    2.215568E+04	    6.689456E+05	    1.000000E+00	    8.498074E-05	    5.501347E+02	
    8.254546E-03	    1.044847E-02	    8.074907E-02	   -1.000000E+00	    1.602037E-03	    1.600000E-03	    8.010000E+02	    1.131591E-05	    3.702912E-04	    2.621116E+04	    6.810153E+05	    1.000000E+00	    7.811526E-05	    5.442948E+02	
    9.275626E-03	    9.378448E-03	    7.279647E-02	   -1.000000E+00	    1.601272E-03	    1.600000E-03	    8.010000E+02	    7.067913E-06	    2.871654E-04	    3.254419E+04	    6.941202E+05	    1.000000E+00	    7.009240E-05	    5.366996E+02	
    1.015711E-02	    8.195057E-03	    6.402694E-02	   -1.000000E+00	    1.600711E-03	    1.600000E-03	    8.010000E+02	    3.949912E-06	    2.102803E-04	    4.264259E+04	    7.092566E+05	    1.000000E+00	    6.122565E-05	    5.294098E+02	
    1.086657E-02	    6.957694E-03	    5.489262E-02	   -1.000000E+00	    1.600355E-03	    1.600000E-03	    8.010000E+02	    1.970628E-06	    1.456310E-04	    5.919453E+04	    7.278055E+05	    1.000000E+00	    5.196143E-05	    5.244154E+02	
    1.139414E-02	    5.733421E-03	    4.565406E-02	   -1.000000E+00	    1.600156E-03	    1.600000E-03	    8.010000E+02	    8.672737E-07	    9.444928E-05	    8.723183E+04	    7.446379E+05	    1.000000E+00	    4.280217E-05	    5.176591E+02	
    1.175246E-02	    4.584593E-03	    3.690508E-02	   -1.000000E+00	    1.600061E-03	    1.600000E-03	    8.010000E+02	    3.395325E-07	    5.786811E-05	    1.365182E+05	    7.633452E+05	    1.000000E+00	    3.421363E-05	    5.126303E+02	
    1.197061E-02	    3.558773E-03	    2.897760E-02	   -1.000000E+00	    1.600021E-03	    1.600000E-03	    8.010000E+02	    1.187403E-07	    3.360652E-05	    2.267034E+05	    7.828214E+05	    1.000000E+00	    2.654983E-05	    5.093867E+02	
    1.208497E-02	    2.683827E-03	    2.214414E-02	   -1.000000E+00	    1.600007E-03	    1.600000E-03	    8.010000E+02	    3.739395E-08	    1.861870E-05	    3.988233E+05	    8.052228E+05	    1.000000E+00	    2.001701E-05	    5.097203E+02	
    1.213087E-02	    1.968333E-03	    1.646674E-02	   -1.000000E+00	    1.600002E-03	    1.600000E-03	    8.010000E+02	    1.063796E-08	    9.851632E-06	    7.417924E+05	    8.289428E+05	    1.000000E+00	    1.467735E-05	    5.128178E+02	
    1.213726E-02	    1.405514E-03	    1.193102E-02	   -1.000000E+00	    1.600000E-03	    1.600000E-03	    8.010000E+02	    2.749590E-09	    4.995676E-06	    1.455321E+06	    8.543771E+05	    1.000000E+00	    1.047875E-05	    5.191021E+02	
    1.212469E-02	    9.784940E-04	    8.439827E-03	   -1.000000E+00	    1.600000E-03	    1.600000E-03	    8.010000E+02	    6.498393E-10	    2.436691E-06	    3.003496E+06	    8.827923E+05	    1.000000E+00	    7.294159E-06	    5.292735E+02	
    1.210588E-02	    6.652807E-04	    5.834986E-03	   -1.000000E+00	    1.600000E-03	    1.600000E-03	    8.010000E+02	    1.410320E-10	    1.144201E-06	    6.498559E+06	    9.133259E+05	    1.000000E+00	    4.958841E-06	    5.425345E+02	
    1.208757E-02	    4.427077E-04	    3.932710E-03	   -1.000000E+00	    1.600000E-03	    1.600000E-03	    8.010000E+02	    2.802915E-11	    5.136051E-07	    1.467750E+07	    9.372975E+05	    1.000000E+00	    3.299611E-06	    5.533219E+02	
    1.207253E-02	    2.891250E-04	    2.573084E-03	   -1.000000E+00	    1.600000E-03	    1.600000E-03	    8.010000E+02	    5.078495E-12	    2.182018E-07	    3.441563E+07	    9.409827E+05	    1.000000E+00	    2.154819E-06	    5.532969E+02	
    1.206131E-02	    1.859383E-04	    1.609316E-03	   -1.000000E+00	    1.600000E-03	    1.600000E-03	    8.010000E+02	    8.183498E-13	    8.502043E-08	    8.321792E+07	    8.901675E+05	    1.000000E+00	    1.385735E-06	    5.223231E+02	
    1.205346E-02	    1.182165E-04	    9.114741E-04	   -1.000000E+00	    1.600000E-03	    1.600000E-03	    8.010000E+02	    1.058772E-13	    2.721365E-08	    2.058812E+08	    7.065307E+05	    1.000000E+00	    8.810090E-07	    4.140700E+02	
    1.204821E-02	    7.463320E-05	    3.740610E-04	   -1.000000E+00	    1.600000E-03	    1.600000E-03	    8.010000E+02	    1.730709E-14	    1.116123E-08	    5.165594E+08	    2.988416E+05	    1.000000E+00	    5.561969E-07	    2.730473E+02	
    1.204631E-02	    5.923158E-05	    0.000000E+00	    0.000000E+00	    1.000000E-03	    1.000000E-03	    1.000000E+03	    0.000000E+00	    0.000000E+00	    6.637461E+05	    0.000000E+00	    1.000000E+00	    0.000000E+00	    0.000000E+00	
   -1.204530E-02	    5.934829E-05	    0.000000E+00	    0.000000E+00	    1.000000E-03	    1.000000E-03	    1.000000E+03	    0.000000E+00	    0.000000E+00	    6.637461E+05	    0.000000E+00	    1.000000E+00	    0.000000E+00	    0.000000E+00	
   -1.204693E-02	    7.477862E-05	    9.148879E-04	   -1.000000E+00	    1.600000E-03	    1.600000E-03	    8.010000E+02	    1.674314E-10	    1.387415E-07	    6.637461E+05	    1.784623E+05	    1.000000E+00	    1.843300E-06	    3.025466E+00	
   -1.205143E-02	    1.184395E-04	    2.229298E-03	   -1.000000E+00	    1.600000E-03	    1.600000E-03	    8.010000E+02	    1.211132E-13	    4.337419E-09	    2.868616E+07	    4.182931E+05	    9.736390E-04	    2.919673E-06	    5.066081E-08	
   -1.205812E-02	    1.862711E-04	    3.935811E-03	   -1.000000E+00	    1.600000E-03	    1.600000E-03	    8.010000E+02	    1.153506E-12	    1.676532E-08	    1.164192E+07	    5.266074E+05	    8.830574E-02	    4.592121E-06	    6.074447E-07	
   -1.206756E-02	    2.896001E-04	    6.292031E-03	   -1.000000E+00	    1.600000E-03	    1.600000E-03	    8.010000E+02	    9.228235E-12	    5.770440E-08	    5.008674E+06	    5.564169E+05	    1.000000E+00	    7.140227E-06	    5.134747E-06	
   -1.207996E-02	    4.433383E-04	    9.614821E-03	   -1.000000E+00	    1.600000E-03	    1.600000E-03	    8.010000E+02	    7.576711E-11	    2.021045E-07	    2.136623E+06	    5.539610E+05	    1.000000E+00	    1.093242E-05	    4.197203E-05	
   -1.209444E-02	    6.660175E-04	    1.426126E-02	   -1.000000E+00	    1.600000E-03	    1.600000E-03	    8.010000E+02	    5.763942E-10	    6.809717E-07	    9.463287E+05	    5.394172E+05	    1.000000E+00	    1.642726E-05	    3.109169E-04	
   -1.210783E-02	    9.791419E-04	    2.061870E-02	   -1.000000E+00	    1.600001E-03	    1.600000E-03	    8.010000E+02	    3.983749E-09	    2.176310E-06	    4.375839E+05	    5.208528E+05	    1.000000E+00	    2.415815E-05	    2.074947E-03	
   -1.211304E-02	    1.405593E-03	    2.913009E-02	   -1.000000E+00	    1.600004E-03	    1.600000E-03	    8.010000E+02	    2.484901E-08	    6.581924E-06	    2.121663E+05	    5.033629E+05	    1.000000E+00	    3.469493E-05	    1.250807E-02	
   -1.209701E-02	    1.966871E-03	    4.017162E-02	   -1.000000E+00	    1.600025E-03	    1.600000E-03	    8.010000E+02	    1.373469E-07	    1.855874E-05	    1.082336E+05	    4.873515E+05	    1.000000E+00	    4.857704E-05	    6.693622E-02	
   -1.203901E-02	    2.679115E-03	    5.396473E-02	   -1.000000E+00	    1.600119E-03	    1.600000E-03	    8.010000E+02	    6.629050E-07	    4.820558E-05	    5.824766E+04	    4.717530E+05	    1.000000E+00	    6.621588E-05	    3.127274E-01	
   -1.191032E-02	    3.548125E-03	    7.052159E-02	   -1.000000E+00	    1.600499E-03	    1.600000E-03	    8.010000E+02	    2.769814E-06	    1.145919E-04	    3.313872E+04	    4.553507E+05	    1.000000E+00	    8.777194E-05	    1.261237E+00	
   -1.167632E-02	    4.564250E-03	    8.965731E-02	   -1.000000E+00	    1.601802E-03	    1.600000E-03	    8.010000E+02	    1.000897E-05	    2.494359E-04	    1.996191E+04	    4.367470E+05	    1.000000E+00	    1.130260E-04	    4.371388E+00	
   -1.130197E-02	    5.698728E-03	    1.106498E-01	   -1.000000E+00	    1.605592E-03	    1.600000E-03	    8.010000E+02	    3.106433E-05	    4.943026E-04	    1.274569E+04	    4.116693E+05	    1.000000E+00	    1.412839E-04	    1.278823E+01	
   -1.076008E-02	    6.903668E-03	    1.325942E-01	   -1.000000E+00	    1.614787E-03	    1.600000E-03	    8.010000E+02	    8.214775E-05	    8.858502E-04	    8.637680E+03	    3.807791E+05	    1.000000E+00	    1.713693E-04	    3.128014E+01	
   -1.004007E-02	    8.117276E-03	    1.539081E-01	   -1.000000E+00	    1.632916E-03	    1.600000E-03	    8.010000E+02	    1.828685E-04	    1.420448E-03	    6.221844E+03	    3.462830E+05	    1.000000E+00	    2.017471E-04	    6.332424E+01	
   -9.153518E-03	    9.274005E-03	    1.738369E-01	   -1.000000E+00	    1.662858E-03	    1.600000E-03	    8.010000E+02	    3.492123E-04	    2.076074E-03	    4.761960E+03	    3.146720E+05	    1.000000E+00	    2.307723E-04	    1.098873E+02	
   -8.133663E-03	    1.031661E-02	    1.912878E-01	   -1.000000E+00	    1.703498E-03	    1.600000E-03	    8.010000E+02	    5.749896E-04	    2.770727E-03	    3.859813E+03	    2.878294E+05	    1.000000E+00	    2.569939E-04	    1.654989E+02	
   -7.028721E-03	    1.120578E-02	    2.055676E-01	   -1.000000E+00	    1.749265E-03	    1.600000E-03	    8.010000E+02	    8.292495E-04	    3.408228E-03	    3.292122E+03	    2.667779E+05	    1.000000E+00	    2.794018E-04	    2.212255E+02	
   -5.891789E-03	    1.192413E-02	    2.162708E-01	   -1.000000E+00	    1.791873E-03	    1.600000E-03	    8.010000E+02	    1.065961E-03	    3.899675E-03	    2.930352E+03	    2.515303E+05	    1.000000E+00	    2.975352E-04	    2.681214E+02	