Title="Fields"
Variables="X""Y""Velocity""Phi""Effective Viscosity""Dynamic Viscosity""Density""Eddy Viscosity""K""Omega""S""F1SST""distance""GEN"
Zone I=22 J=22 F=POINT
   -1.255094E-02	    6.153724E-05	    0.000000E+00	   -1.000000E+00	    1.200000E-02	    1.200000E-02	    8.750000E+02	    0.000000E+00	    0.000000E+00	    2.451426E+08	    0.000000E+00	    1.000000E+00	    0.000000E+00	    0.000000E+00	
   -1.254351E-02	    1.089770E-04	    0.000000E+00	   -1.000000E+00	    1.200000E-02	    1.200000E-02	    8.750000E+02	    0.000000E+00	    0.000000E+00	    2.451426E+08	    0.000000E+00	    1.000000E+00	    0.000000E+00	    0.000000E+00	
   -1.250666E-02	    3.290280E-04	    0.000000E+00	   -1.000000E+00	    1.200000E-02	    1.200000E-02	    8.750000E+02	    0.000000E+00	    0.000000E+00	    2.690101E+07	    0.000000E+00	    1.000000E+00	    0.000000E+00	    0.000000E+00	
   -1.239368E-02	    8.939349E-04	    0.000000E+00	   -1.000000E+00	    1.200000E-02	    1.200000E-02	    8.750000E+02	    0.000000E+00	    0.000000E+00	    3.647512E+06	    0.000000E+00	    1.000000E+00	    0.000000E+00	    0.000000E+00	
   -1.206729E-02	    2.080040E-03	    0.000000E+00	   -1.000000E+00	    1.200000E-02	    1.200000E-02	    8.750000E+02	    0.000000E+00	    0.000000E+00	    6.749162E+05	    0.000000E+00	    1.000000E+00	    0.000000E+00	    0.000000E+00	
   -1.124514E-02	    4.023708E-03	    0.000000E+00	   -1.000000E+00	    1.200000E-02	    1.200000E-02	    8.750000E+02	    0.000000E+00	    0.000000E+00	    1.808934E+05	    0.000000E+00	    1.000000E+00	    0.000000E+00	    0.000000E+00	
   -9.625766E-03	    6.406042E-03	    0.000000E+00	   -1.000000E+00	    1.200000E-02	    1.200000E-02	    8.750000E+02	    0.000000E+00	    0.000000E+00	    7.162480E+04	    0.000000E+00	    1.000000E+00	    0.000000E+00	    0.000000E+00	
   -7.277940E-03	    8.529206E-03	    0.000000E+00	   -1.000000E+00	    1.200000E-02	    1.200000E-02	    8.750000E+02	    0.000000E+00	    0.000000E+00	    4.053394E+04	    0.000000E+00	    1.000000E+00	    0.000000E+00	    0.000000E+00	
   -4.723066E-03	    9.910530E-03	    0.000000E+00	   -1.000000E+00	    1.200000E-02	    1.200000E-02	    8.750000E+02	    0.000000E+00	    0.000000E+00	    3.008478E+04	    0.000000E+00	    1.000000E+00	    0.000000E+00	    0.000000E+00	
   -2.474807E-03	    1.057798E-02	    0.000000E+00	   -1.000000E+00	    1.200000E-02	    1.200000E-02	    8.750000E+02	    0.000000E+00	    0.000000E+00	    2.643456E+04	    0.000000E+00	    1.000000E+00	    0.000000E+00	    0.000000E+00	
   -7.362693E-04	    1.080008E-02	    0.000000E+00	   -1.000000E+00	    1.200000E-02	    1.200000E-02	    8.750000E+02	    0.000000E+00	    0.000000E+00	    2.536698E+04	    0.000000E+00	    1.000000E+00	    0.000000E+00	    0.000000E+00	
    7.362693E-04	    1.080008E-02	    0.000000E+00	   -1.000000E+00	    1.200000E-02	    1.200000E-02	    8.750000E+02	    0.000000E+00	    0.000000E+00	    2.536698E+04	    0.000000E+00	    1.000000E+00	    0.000000E+00	    0.000000E+00	
    2.474807E-03	    1.057798E-02	    0.000000E+00	   -1.000000E+00	    1.200000E-02	    1.200000E-02	    8.750000E+02	    0.000000E+00	    0.000000E+00	    2.643456E+04	    0.000000E+00	    1.000000E+00	    0.000000E+00	    0.000000E+00	
    4.723066E-03	    9.910530E-03	    0.000000E+00	   -1.000000E+00	    1.200000E-02	    1.200000E-02	    8.750000E+02	    0.000000E+00	    0.000000E+00	    3.008478E+04	    0.000000E+00	    1.000000E+00	    0.000000E+00	    0.000000E+00	
    7.277940E-03	    8.529206E-03	    0.000000E+00	   -1.000000E+00	    1.200000E-02	    1.200000E-02	    8.750000E+02	    0.000000E+00	    0.000000E+00	    4.053394E+04	    0.000000E+00	    1.000000E+00	    0.000000E+00	    0.000000E+00	
    9.625766E-03	    6.406042E-03	    0.000000E+00	   -1.000000E+00	    1.200000E-02	    1.200000E-02	    8.750000E+02	    0.000000E+00	    0.000000E+00	    7.162480E+04	    0.000000E+00	    1.000000E+00	    0.000000E+00	    0.000000E+00	
    1.124514E-02	    4.023708E-03	    0.000000E+00	   -1.000000E+00	    1.200000E-02	    1.200000E-02	    8.750000E+02	    0.000000E+00	    0.000000E+00	    1.808934E+05	    0.000000E+00	    1.000000E+00	    0.000000E+00	    0.000000E+00	
    1.206729E-02	    2.080040E-03	    0.000000E+00	   -1.000000E+00	    1.200000E-02	    1.200000E-02	    8.750000E+02	    0.000000E+00	    0.000000E+00	    6.749162E+05	    0.000000E+00	    1.000000E+00	    0.000000E+00	    0.000000E+00	
    1.239368E-02	    8.939349E-04	    0.000000E+00	   -1.000000E+00	    1.200000E-02	    1.200000E-02	    8.750000E+02	    0.000000E+00	    0.000000E+00	    3.647512E+06	    0.000000E+00	    1.000000E+00	    0.000000E+00	    0.000000E+00	
    1.250666E-02	    3.290280E-04	    0.000000E+00	   -1.000000E+00	    1.200000E-02	    1.200000E-02	    8.750000E+02	    0.000000E+00	    0.000000E+00	    2.690101E+07	    0.000000E+00	    1.000000E+00	    0.000000E+00	    0.000000E+00	
    1.254351E-02	    1.089770E-04	    0.000000E+00	   -1.000000E+00	    1.200000E-02	    1.200000E-02	    8.750000E+02	    0.000000E+00	    0.000000E+00	    2.451426E+08	    0.000000E+00	    1.000000E+00	    0.000000E+00	    0.000000E+00	
    1.255094E-02	    6.153724E-05	    0.000000E+00	   -1.000000E+00	    1.200000E-02	    1.200000E-02	    8.750000E+02	    0.000000E+00	    0.000000E+00	    0.000000E+00	    0.000000E+00	    1.000000E+00	    0.000000E+00	    0.000000E+00	
   -1.254976E-02	    6.134343E-05	    0.000000E+00	   -1.000000E+00	    1.200000E-02	    1.200000E-02	    8.750000E+02	    0.000000E+00	    0.000000E+00	    0.000000E+00	    0.000000E+00	    1.000000E+00	    0.000000E+00	    0.000000E+00	
   -1.254143E-02	    1.086259E-04	    2.781730E-04	   -1.000000E+00	    1.200000E-02	    1.200000E-02	    8.750000E+02	    3.514201E-14	    9.845492E-09	    2.451426E+08	    1.730412E+04	    1.000000E+00	    2.115545E-06	    9.886610E+01	
   -1.250038E-02	    3.278579E-04	    1.151887E-03	   -1.000000E+00	    1.200000E-02	    1.200000E-02	    8.750000E+02	    1.443553E-12	    4.438061E-08	    2.690101E+07	    3.250541E+04	    1.000000E+00	    6.386270E-06	    9.538276E+01	
   -1.237679E-02	    8.899887E-04	    3.005150E-03	   -1.000000E+00	    1.200000E-02	    1.200000E-02	    8.750000E+02	    7.369074E-11	    3.071861E-07	    3.647512E+06	    2.995852E+04	    1.000000E+00	    1.734336E-05	    8.876842E+01	
   -1.202910E-02	    2.067120E-03	    6.333484E-03	   -1.000000E+00	    1.200000E-02	    1.200000E-02	    8.750000E+02	    1.833314E-09	    1.414095E-06	    6.749162E+05	    2.453929E+04	    1.000000E+00	    4.031871E-05	    7.427227E+01	
   -1.117650E-02	    3.986924E-03	    1.119968E-02	   -1.000000E+00	    1.200000E-02	    1.200000E-02	    8.750000E+02	    2.308205E-08	    4.771876E-06	    1.808934E+05	    2.043501E+04	    1.000000E+00	    7.787897E-05	    6.466480E+01	
   -9.532553E-03	    6.324621E-03	    1.677854E-02	   -1.000000E+00	    1.200002E-02	    1.200000E-02	    8.750000E+02	    1.431896E-07	    1.172106E-05	    7.162480E+04	    1.800506E+04	    1.000000E+00	    1.237657E-04	    6.011671E+01	
   -7.184404E-03	    8.393860E-03	    2.165701E-02	   -1.000000E+00	    1.200007E-02	    1.200000E-02	    8.750000E+02	    4.577308E-07	    2.120415E-05	    4.053394E+04	    1.684516E+04	    1.000000E+00	    1.645217E-04	    5.906369E+01	
   -4.652681E-03	    9.733006E-03	    2.465483E-02	   -1.000000E+00	    1.200012E-02	    1.200000E-02	    8.750000E+02	    8.251683E-07	    2.837144E-05	    3.008478E+04	    1.611542E+04	    1.000000E+00	    1.909677E-04	    5.772724E+01	
   -2.435483E-03	    1.037808E-02	    2.607312E-02	   -1.000000E+00	    1.200016E-02	    1.200000E-02	    8.750000E+02	    1.066970E-06	    3.223415E-05	    2.643456E+04	    1.579370E+04	    1.000000E+00	    2.037267E-04	    5.717595E+01	
   -7.243284E-04	    1.059245E-02	    2.652930E-02	   -1.000000E+00	    1.200017E-02	    1.200000E-02	    8.750000E+02	    1.157171E-06	    3.354735E-05	    2.536698E+04	    1.567655E+04	    1.000000E+00	    2.079696E-04	    5.695256E+01	
    7.243284E-04	    1.059245E-02	    2.652930E-02	   -1.000000E+00	    1.200017E-02	    1.200000E-02	    8.750000E+02	    1.157171E-06	    3.354735E-05	    2.536698E+04	    1.567656E+04	    1.000000E+00	    2.079696E-04	    5.695257E+01	
    2.435483E-03	    1.037808E-02	    2.607313E-02	   -1.000000E+00	    1.200016E-02	    1.200000E-02	    8.750000E+02	    1.066970E-06	    3.223416E-05	    2.643456E+04	    1.579371E+04	    1.000000E+00	    2.037267E-04	    5.717598E+01	
    4.652681E-03	    9.733006E-03	    2.465485E-02	   -1.000000E+00	    1.200012E-02	    1.200000E-02	    8.750000E+02	    8.251690E-07	    2.837146E-05	    3.008478E+04	    1.611544E+04	    1.000000E+00	    1.909677E-04	    5.772730E+01	
    7.184404E-03	    8.393860E-03	    2.165704E-02	   -1.000000E+00	    1.200007E-02	    1.200000E-02	    8.750000E+02	    4.577318E-07	    2.120420E-05	    4.053394E+04	    1.684521E+04	    1.000000E+00	    1.645217E-04	    5.906385E+01	
    9.532553E-03	    6.324621E-03	    1.677859E-02	   -1.000000E+00	    1.200002E-02	    1.200000E-02	    8.750000E+02	    1.431902E-07	    1.172111E-05	    7.162480E+04	    1.800517E+04	    1.000000E+00	    1.237657E-04	    6.011703E+01	
    1.117650E-02	    3.986924E-03	    1.119979E-02	   -1.000000E+00	    1.200000E-02	    1.200000E-02	    8.750000E+02	    2.308236E-08	    4.771941E-06	    1.808934E+05	    2.043539E+04	    1.000000E+00	    7.787897E-05	    6.466583E+01	
    1.202910E-02	    2.067120E-03	    6.333721E-03	   -1.000000E+00	    1.200000E-02	    1.200000E-02	    8.750000E+02	    1.833434E-09	    1.414188E-06	    6.749162E+05	    2.454112E+04	    1.000000E+00	    4.031871E-05	    7.427749E+01	
    1.237679E-02	    8.899887E-04	    3.005798E-03	   -1.000000E+00	    1.200000E-02	    1.200000E-02	    8.750000E+02	    7.372128E-11	    3.073134E-07	    3.647512E+06	    2.997144E+04	    1.000000E+00	    1.734336E-05	    8.880594E+01	
    1.250038E-02	    3.278579E-04	    1.153674E-03	   -1.000000E+00	    1.200000E-02	    1.200000E-02	    8.750000E+02	    1.447982E-12	    4.451677E-08	    2.690101E+07	    3.260637E+04	    1.000000E+00	    6.386270E-06	    9.567721E+01	
    1.254143E-02	    1.086259E-04	    2.818143E-04	   -1.000000E+00	    1.200000E-02	    1.200000E-02	    8.750000E+02	    3.605631E-14	    1.010165E-08	    2.451426E+08	    1.776007E+04	    1.000000E+00	    2.115545E-06	    1.014548E+02	
    1.254976E-02	    6.134343E-05	    0.000000E+00	   -1.000000E+00	    1.200000E-02	    1.200000E-02	    8.750000E+02	    0.000000E+00	    0.000000E+00	    4.763307E+05	    0.000000E+00	    1.000000E+00	    0.000000E+00	    0.000000E+00	
   -1.254634E-02	    6.064847E-05	    0.000000E+00	   -1.000000E+00	    1.200000E-02	    1.200000E-02	    8.750000E+02	    0.000000E+00	    0.000000E+00	    4.763307E+05	    0.000000E+00	    1.000000E+00	    0.000000E+00	    0.000000E+00	
   -1.253538E-02	    1.073727E-04	    1.089668E-03	   -1.000000E+00	    1.200000E-02	    1.200000E-02	    8.750000E+02	    3.829338E-10	    2.084607E-07	    4.763307E+05	    1.767132E+04	    1.000000E+00	    8.290873E-06	    3.462659E+00	
   -1.248221E-02	    3.237604E-04	    4.510298E-03	   -1.000000E+00	    1.200000E-02	    1.200000E-02	    8.750000E+02	    4.904249E-12	    1.684194E-08	    3.004883E+06	    3.253899E+04	    1.000000E+00	    2.501579E-05	    1.595793E-07	
   -1.232806E-02	    8.766803E-04	    1.174902E-02	   -1.000000E+00	    1.200000E-02	    1.200000E-02	    8.750000E+02	    4.854891E-10	    2.270933E-07	    4.092918E+05	    2.991441E+04	    1.000000E+00	    6.785149E-05	    1.452312E-05	
   -1.191966E-02	    2.025660E-03	    2.466725E-02	   -1.000000E+00	    1.200000E-02	    1.200000E-02	    8.750000E+02	    2.417418E-08	    2.103834E-06	    7.614961E+04	    2.438126E+04	    1.000000E+00	    1.573276E-04	    5.893969E-04	
   -1.098202E-02	    3.874225E-03	    4.331712E-02	   -1.000000E+00	    1.200009E-02	    1.200000E-02	    8.750000E+02	    6.146506E-07	    1.446522E-05	    2.059230E+04	    2.009103E+04	    1.000000E+00	    3.026157E-04	    1.234896E-02	
   -9.272087E-03	    6.083772E-03	    6.430820E-02	   -1.000000E+00	    1.200089E-02	    1.200000E-02	    8.750000E+02	    5.940614E-06	    5.594473E-05	    8.240165E+03	    1.740901E+04	    1.000000E+00	    4.784837E-04	    1.034202E-01	
   -6.926181E-03	    8.002671E-03	    8.233022E-02	   -1.000000E+00	    1.200372E-02	    1.200000E-02	    8.750000E+02	    2.478621E-05	    1.332700E-04	    4.704684E+03	    1.596700E+04	    1.000000E+00	    6.332243E-04	    3.957615E-01	
   -4.459880E-03	    9.226501E-03	    9.320010E-02	   -1.000000E+00	    1.200726E-02	    1.200000E-02	    8.750000E+02	    4.839471E-05	    1.941862E-04	    3.510982E+03	    1.500863E+04	    1.000000E+00	    7.329136E-04	    7.263385E-01	
   -2.328165E-03	    9.811062E-03	    9.829017E-02	   -1.000000E+00	    1.200973E-02	    1.200000E-02	    8.750000E+02	    6.489997E-05	    2.293988E-04	    3.092821E+03	    1.456858E+04	    1.000000E+00	    7.808096E-04	    9.455005E-01	
   -6.917818E-04	    1.000461E-02	    9.991687E-02	   -1.000000E+00	    1.201068E-02	    1.200000E-02	    8.750000E+02	    7.121391E-05	    2.417590E-04	    2.970475E+03	    1.441268E+04	    1.000000E+00	    7.967085E-04	    1.026384E+00	
    6.917818E-04	    1.000461E-02	    9.991688E-02	   -1.000000E+00	    1.201068E-02	    1.200000E-02	    8.750000E+02	    7.121390E-05	    2.417590E-04	    2.970475E+03	    1.441269E+04	    1.000000E+00	    7.967085E-04	    1.026384E+00	
    2.328165E-03	    9.811062E-03	    9.829020E-02	   -1.000000E+00	    1.200973E-02	    1.200000E-02	    8.750000E+02	    6.489996E-05	    2.293988E-04	    3.092821E+03	    1.456859E+04	    1.000000E+00	    7.808096E-04	    9.455010E-01	
    4.459880E-03	    9.226501E-03	    9.320017E-02	   -1.000000E+00	    1.200726E-02	    1.200000E-02	    8.750000E+02	    4.839467E-05	    1.941861E-04	    3.510982E+03	    1.500866E+04	    1.000000E+00	    7.329136E-04	    7.263391E-01	
    6.926181E-03	    8.002671E-03	    8.233035E-02	   -1.000000E+00	    1.200372E-02	    1.200000E-02	    8.750000E+02	    2.478620E-05	    1.332700E-04	    4.704684E+03	    1.596706E+04	    1.000000E+00	    6.332243E-04	    3.957626E-01	
    9.272087E-03	    6.083772E-03	    6.430841E-02	   -1.000000E+00	    1.200089E-02	    1.200000E-02	    8.750000E+02	    5.940582E-06	    5.594443E-05	    8.240165E+03	    1.740913E+04	    1.000000E+00	    4.784837E-04	    1.034203E-01	
    1.098202E-02	    3.874225E-03	    4.331752E-02	   -1.000000E+00	    1.200009E-02	    1.200000E-02	    8.750000E+02	    6.146396E-07	    1.446496E-05	    2.059230E+04	    2.009140E+04	    1.000000E+00	    3.026157E-04	    1.234897E-02	
    1.191966E-02	    2.025660E-03	    2.466818E-02	   -1.000000E+00	    1.200000E-02	    1.200000E-02	    8.750000E+02	    2.417285E-08	    2.103718E-06	    7.614961E+04	    2.438308E+04	    1.000000E+00	    1.573276E-04	    5.894087E-04	
    1.232806E-02	    8.766803E-04	    1.175156E-02	   -1.000000E+00	    1.200000E-02	    1.200000E-02	    8.750000E+02	    4.854619E-10	    2.270807E-07	    4.092918E+05	    2.992722E+04	    1.000000E+00	    6.785149E-05	    1.452852E-05	
    1.248221E-02	    3.237604E-04	    4.517305E-03	   -1.000000E+00	    1.200000E-02	    1.200000E-02	    8.750000E+02	    4.909192E-12	    1.685891E-08	    3.004883E+06	    3.263923E+04	    1.000000E+00	    2.501579E-05	    1.602322E-07	
    1.253538E-02	    1.073727E-04	    1.103960E-03	   -1.000000E+00	    1.200000E-02	    1.200000E-02	    8.750000E+02	    3.928339E-10	    2.138501E-07	    4.763307E+05	    1.813233E+04	    1.000000E+00	    8.290873E-06	    3.553133E+00	
    1.254634E-02	    6.064847E-05	    0.000000E+00	   -1.000000E+00	    1.200000E-02	    1.200000E-02	    8.750000E+02	    0.000000E+00	    0.000000E+00	    4.769756E+05	    0.000000E+00	    1.000000E+00	    0.000000E+00	    0.000000E+00	
   -1.254021E-02	    5.888827E-05	    0.000000E+00	   -1.000000E+00	    1.200000E-02	    1.200000E-02	    8.750000E+02	    0.000000E+00	    0.000000E+00	    4.769756E+05	    0.000000E+00	    1.000000E+00	    0.000000E+00	    0.000000E+00	
   -1.252455E-02	    1.042173E-04	    2.564168E-03	   -1.000000E+00	    1.200000E-02	    1.200000E-02	    8.750000E+02	    1.111842E-09	    6.060818E-07	    4.769756E+05	    1.951929E+04	    1.000000E+00	    1.955480E-05	    1.391243E+01	
   -1.244974E-02	    3.136994E-04	    1.060849E-02	   -1.000000E+00	    1.200000E-02	    1.200000E-02	    8.750000E+02	    4.008287E-10	    2.407694E-07	    5.255942E+05	    3.280444E+04	    1.000000E+00	    5.895075E-05	    1.314896E-05	
   -1.224161E-02	    8.456802E-04	    2.757389E-02	   -1.000000E+00	    1.200001E-02	    1.200000E-02	    8.750000E+02	    4.576155E-08	    3.794806E-06	    7.255995E+04	    2.989610E+04	    1.000000E+00	    1.595409E-04	    1.368092E-03	
   -1.172829E-02	    1.936237E-03	    5.753914E-02	   -1.000000E+00	    1.200036E-02	    1.200000E-02	    8.750000E+02	    2.408370E-06	    3.753720E-05	    1.363788E+04	    2.410309E+04	    1.000000E+00	    3.682401E-04	    5.804914E-02	
   -1.064968E-02	    3.649722E-03	    9.990976E-02	   -1.000000E+00	    1.200927E-02	    1.200000E-02	    8.750000E+02	    6.180601E-05	    2.644145E-04	    3.743369E+03	    1.928695E+04	    1.000000E+00	    7.031681E-04	    1.192049E+00	
   -8.838931E-03	    5.633991E-03	    1.460406E-01	   -1.000000E+00	    1.208718E-02	    1.200000E-02	    8.750000E+02	    5.812121E-04	    1.009075E-03	    1.519136E+03	    1.539798E+04	    1.000000E+00	    1.102349E-03	    8.949492E+00	
   -6.506741E-03	    7.303409E-03	    1.839415E-01	   -1.000000E+00	    1.234165E-02	    1.200000E-02	    8.750000E+02	    2.277640E-03	    2.290246E-03	    8.798426E+02	    1.270223E+04	    1.000000E+00	    1.448215E-03	    2.893111E+01	
   -4.151349E-03	    8.343036E-03	    2.055485E-01	   -1.000000E+00	    1.262287E-02	    1.200000E-02	    8.750000E+02	    4.152433E-03	    3.167261E-03	    6.674046E+02	    1.124415E+04	    1.000000E+00	    1.668501E-03	    4.669060E+01	
   -2.157648E-03	    8.832909E-03	    2.153049E-01	   -1.000000E+00	    1.280183E-02	    1.200000E-02	    8.750000E+02	    5.345515E-03	    3.626521E-03	    5.936202E+02	    1.060850E+04	    1.000000E+00	    1.773655E-03	    5.670790E+01	
   -6.401899E-04	    8.994169E-03	    2.183629E-01	   -1.000000E+00	    1.286704E-02	    1.200000E-02	    8.750000E+02	    5.780246E-03	    3.779972E-03	    5.722033E+02	    1.039870E+04	    1.000000E+00	    1.808465E-03	    6.010703E+01	
    6.401899E-04	    8.994169E-03	    2.183629E-01	   -1.000000E+00	    1.286704E-02	    1.200000E-02	    8.750000E+02	    5.780245E-03	    3.779972E-03	    5.722033E+02	    1.039870E+04	    1.000000E+00	    1.808465E-03	    6.010704E+01	
    2.157648E-03	    8.832909E-03	    2.153050E-01	   -1.000000E+00	    1.280183E-02	    1.200000E-02	    8.750000E+02	    5.345514E-03	    3.626520E-03	    5.936202E+02	    1.060851E+04	    1.000000E+00	    1.773655E-03	    5.670794E+01	
    4.151349E-03	    8.343036E-03	    2.055487E-01	   -1.000000E+00	    1.262286E-02	    1.200000E-02	    8.750000E+02	    4.152430E-03	    3.167259E-03	    6.674046E+02	    1.124418E+04	    1.000000E+00	    1.668501E-03	    4.669066E+01	
    6.506741E-03	    7.303409E-03	    1.839418E-01	   -1.000000E+00	    1.234165E-02	    1.200000E-02	    8.750000E+02	    2.277639E-03	    2.290245E-03	    8.798426E+02	    1.270228E+04	    1.000000E+00	    1.448215E-03	    2.893120E+01	
    8.838931E-03	    5.633991E-03	    1.460411E-01	   -1.000000E+00	    1.208718E-02	    1.200000E-02	    8.750000E+02	    5.812089E-04	    1.009069E-03	    1.519136E+03	    1.539809E+04	    1.000000E+00	    1.102349E-03	    8.949507E+00	
    1.064968E-02	    3.649722E-03	    9.991070E-02	   -1.000000E+00	    1.200927E-02	    1.200000E-02	    8.750000E+02	    6.180483E-05	    2.644095E-04	    3.743369E+03	    1.928731E+04	    1.000000E+00	    7.031681E-04	    1.192049E+00	
    1.172829E-02	    1.936237E-03	    5.754132E-02	   -1.000000E+00	    1.200036E-02	    1.200000E-02	    8.750000E+02	    2.408217E-06	    3.753482E-05	    1.363788E+04	    2.410481E+04	    1.000000E+00	    3.682401E-04	    5.804963E-02	
    1.224161E-02	    8.456802E-04	    2.757986E-02	   -1.000000E+00	    1.200001E-02	    1.200000E-02	    8.750000E+02	    4.575580E-08	    3.794330E-06	    7.255995E+04	    2.990825E+04	    1.000000E+00	    1.595409E-04	    1.368476E-03	
    1.244974E-02	    3.136994E-04	    1.062503E-02	   -1.000000E+00	    1.200000E-02	    1.200000E-02	    8.750000E+02	    4.009022E-10	    2.408136E-07	    5.255942E+05	    3.290086E+04	    1.000000E+00	    5.895075E-05	    1.319003E-05	
    1.252455E-02	    1.042173E-04	    2.598143E-03	   -1.000000E+00	    1.200000E-02	    1.200000E-02	    8.750000E+02	    1.140573E-09	    6.217432E-07	    4.769756E+05	    2.000431E+04	    1.000000E+00	    1.955480E-05	    1.427774E+01	
    1.254021E-02	    5.888827E-05	    0.000000E+00	   -1.000000E+00	    1.200000E-02	    1.200000E-02	    8.750000E+02	    0.000000E+00	    0.000000E+00	    4.779834E+05	    0.000000E+00	    1.000000E+00	    0.000000E+00	    0.000000E+00	
   -1.253066E-02	    5.467964E-05	    0.000000E+00	   -1.000000E+00	    1.200000E-02	    1.200000E-02	    8.750000E+02	    0.000000E+00	    0.000000E+00	    4.779834E+05	    0.000000E+00	    1.000000E+00	    0.000000E+00	    0.000000E+00	
   -1.250767E-02	    9.671233E-05	    4.924456E-03	   -1.000000E+00	    1.200000E-02	    1.200000E-02	    8.750000E+02	    2.676127E-09	    1.461879E-06	    4.779834E+05	    2.570629E+04	    1.000000E+00	    3.788460E-05	    4.158355E+01	
   -1.239937E-02	    2.903228E-04	    2.037270E-02	   -1.000000E+00	    1.200000E-02	    1.200000E-02	    8.750000E+02	    1.716072E-08	    2.540514E-06	    1.295371E+05	    3.384464E+04	    1.000000E+00	    1.140542E-04	    5.807985E-04	
   -1.210902E-02	    7.773283E-04	    5.281982E-02	   -1.000000E+00	    1.200029E-02	    1.200000E-02	    8.750000E+02	    1.942342E-06	    4.062775E-05	    1.830228E+04	    3.006216E+04	    1.000000E+00	    3.076164E-04	    5.839100E-02	
   -1.144145E-02	    1.755225E-03	    1.091859E-01	   -1.000000E+00	    1.201492E-02	    1.200000E-02	    8.750000E+02	    9.949205E-05	    3.963247E-04	    3.485546E+03	    2.351137E+04	    1.000000E+00	    7.051094E-04	    2.339194E+00	
   -1.016912E-02	    3.238432E-03	    1.854736E-01	   -1.000000E+00	    1.234840E-02	    1.200000E-02	    8.750000E+02	    2.322637E-03	    2.580465E-03	    9.721309E+02	    1.646340E+04	    1.000000E+00	    1.332094E-03	    3.823850E+01	
   -8.237985E-03	    4.879388E-03	    2.585455E-01	   -1.000000E+00	    1.420400E-02	    1.200000E-02	    8.750000E+02	    1.469334E-02	    7.138215E-03	    4.250862E+02	    1.057239E+04	    1.000000E+00	    2.063155E-03	    1.553438E+02	
   -5.944599E-03	    6.200297E-03	    3.083665E-01	   -1.000000E+00	    1.724559E-02	    1.200000E-02	    8.750000E+02	    3.497063E-02	    1.097595E-02	    2.746292E+02	    7.218224E+03	    1.000000E+00	    2.683582E-03	    2.524259E+02	
   -3.746623E-03	    6.996852E-03	    3.348879E-01	   -1.000000E+00	    1.869228E-02	    1.200000E-02	    8.750000E+02	    4.461523E-02	    1.252081E-02	    2.201669E+02	    5.794792E+03	    1.000000E+00	    3.072940E-03	    2.585359E+02	
   -1.936209E-03	    7.365518E-03	    3.463023E-01	   -1.000000E+00	    1.937458E-02	    1.200000E-02	    8.750000E+02	    4.916386E-02	    1.311162E-02	    2.006850E+02	    5.233116E+03	    1.000000E+00	    3.257297E-03	    2.572802E+02	
   -5.734130E-04	    7.485962E-03	    3.497950E-01	   -1.000000E+00	    1.959784E-02	    1.200000E-02	    8.750000E+02	    5.065224E-02	    1.328304E-02	    1.950549E+02	    5.059844E+03	    1.000000E+00	    3.318117E-03	    2.562924E+02	
    5.734130E-04	    7.485962E-03	    3.497950E-01	   -1.000000E+00	    1.959783E-02	    1.200000E-02	    8.750000E+02	    5.065222E-02	    1.328304E-02	    1.950549E+02	    5.059846E+03	    1.000000E+00	    3.318117E-03	    2.562925E+02	
    1.936209E-03	    7.365518E-03	    3.463025E-01	   -1.000000E+00	    1.937457E-02	    1.200000E-02	    8.750000E+02	    4.916382E-02	    1.311162E-02	    2.006849E+02	    5.233123E+03	    1.000000E+00	    3.257297E-03	    2.572803E+02	
    3.746623E-03	    6.996852E-03	    3.348883E-01	   -1.000000E+00	    1.869227E-02	    1.200000E-02	    8.750000E+02	    4.461514E-02	    1.252080E-02	    2.201669E+02	    5.794809E+03	    1.000000E+00	    3.072940E-03	    2.585362E+02	
    5.944599E-03	    6.200297E-03	    3.083671E-01	   -1.000000E+00	    1.724559E-02	    1.200000E-02	    8.750000E+02	    3.497061E-02	    1.097594E-02	    2.746292E+02	    7.218259E+03	    1.000000E+00	    2.683582E-03	    2.524269E+02	
    8.237985E-03	    4.879388E-03	    2.585464E-01	   -1.000000E+00	    1.420399E-02	    1.200000E-02	    8.750000E+02	    1.469327E-02	    7.138181E-03	    4.250862E+02	    1.057248E+04	    1.000000E+00	    2.063155E-03	    1.553444E+02	
    1.016912E-02	    3.238432E-03	    1.854754E-01	   -1.000000E+00	    1.234839E-02	    1.200000E-02	    8.750000E+02	    2.322594E-03	    2.580417E-03	    9.721310E+02	    1.646370E+04	    1.000000E+00	    1.332094E-03	    3.823847E+01	
    1.144145E-02	    1.755225E-03	    1.091900E-01	   -1.000000E+00	    1.201492E-02	    1.200000E-02	    8.750000E+02	    9.948562E-05	    3.962991E-04	    3.485546E+03	    2.351275E+04	    1.000000E+00	    7.051094E-04	    2.339181E+00	
    1.210902E-02	    7.773283E-04	    5.283128E-02	   -1.000000E+00	    1.200029E-02	    1.200000E-02	    8.750000E+02	    1.942094E-06	    4.062256E-05	    1.830228E+04	    3.007203E+04	    1.000000E+00	    3.076164E-04	    5.840270E-02	
    1.239937E-02	    2.903228E-04	    2.040476E-02	   -1.000000E+00	    1.200000E-02	    1.200000E-02	    8.750000E+02	    1.716192E-08	    2.540691E-06	    1.295371E+05	    3.392761E+04	    1.000000E+00	    1.140542E-04	    5.822630E-04	
    1.250767E-02	    9.671233E-05	    4.992166E-03	   -1.000000E+00	    1.200000E-02	    1.200000E-02	    8.750000E+02	    2.745231E-09	    1.499628E-06	    4.779834E+05	    2.627069E+04	    1.000000E+00	    3.788460E-05	    4.269612E+01	
    1.253066E-02	    5.467964E-05	    0.000000E+00	   -1.000000E+00	    1.200000E-02	    1.200000E-02	    8.750000E+02	    0.000000E+00	    0.000000E+00	    4.792345E+05	    0.000000E+00	    1.000000E+00	    0.000000E+00	    0.000000E+00	
   -1.251883E-02	    4.631665E-05	    0.000000E+00	   -1.000000E+00	    1.200000E-02	    1.200000E-02	    8.750000E+02	    0.000000E+00	    0.000000E+00	    4.792345E+05	    0.000000E+00	    1.000000E+00	    0.000000E+00	    0.000000E+00	
   -1.248680E-02	    8.186125E-05	    7.972552E-03	   -1.000000E+00	    1.200000E-02	    1.200000E-02	    8.750000E+02	    5.950945E-09	    3.259312E-06	    4.792345E+05	    3.977443E+04	    1.000000E+00	    4.784731E-05	    1.007867E+02	
   -1.233748E-02	    2.449230E-04	    3.304340E-02	   -1.000000E+00	    1.200004E-02	    1.200000E-02	    8.750000E+02	    2.771891E-07	    1.535443E-05	    4.846919E+04	    3.650990E+04	    1.000000E+00	    1.889309E-04	    1.012014E-02	
   -1.194853E-02	    6.503268E-04	    8.561420E-02	   -1.000000E+00	    1.200504E-02	    1.200000E-02	    8.750000E+02	    3.357891E-05	    2.548345E-04	    6.640483E+03	    3.061399E+04	    1.000000E+00	    5.074468E-04	    1.027984E+00	
   -1.110466E-02	    1.444370E-03	    1.745301E-01	   -1.000000E+00	    1.223870E-02	    1.200000E-02	    8.750000E+02	    1.591333E-03	    2.304901E-03	    1.267357E+03	    2.152910E+04	    1.000000E+00	    1.153577E-03	    3.425998E+01	
   -9.630234E-03	    2.600218E-03	    2.800488E-01	   -1.000000E+00	    1.507001E-02	    1.200000E-02	    8.750000E+02	    2.046674E-02	    9.099890E-03	    3.890412E+02	    1.132947E+04	    1.000000E+00	    2.152731E-03	    2.318773E+02	
   -7.597425E-03	    3.815333E-03	    3.621909E-01	   -1.000000E+00	    1.953361E-02	    1.200000E-02	    8.750000E+02	    5.022403E-02	    1.388722E-02	    1.980141E+02	    5.625318E+03	    1.000000E+00	    3.290280E-03	    2.825261E+02	
   -5.369342E-03	    4.748241E-03	    4.111850E-01	   -1.000000E+00	    2.314365E-02	    1.200000E-02	    8.750000E+02	    7.429103E-02	    1.584561E-02	    1.406475E+02	    3.347223E+03	    1.000000E+00	    4.235380E-03	    2.486686E+02	
   -3.342509E-03	    5.292453E-03	    4.362797E-01	   -1.000000E+00	    2.550694E-02	    1.200000E-02	    8.750000E+02	    9.004624E-02	    1.653212E-02	    1.183933E+02	    2.480080E+03	    1.000000E+00	    4.820018E-03	    2.233218E+02	
   -1.717607E-03	    5.539830E-03	    4.467780E-01	   -1.000000E+00	    2.667516E-02	    1.200000E-02	    8.750000E+02	    9.783443E-02	    1.675055E-02	    1.101911E+02	    2.156821E+03	    1.000000E+00	    5.094731E-03	    2.110113E+02	
   -5.077360E-04	    5.620044E-03	    4.499491E-01	   -1.000000E+00	    2.706527E-02	    1.200000E-02	    8.750000E+02	    1.004351E-01	    1.680817E-02	    1.078180E+02	    2.060673E+03	    1.000000E+00	    5.185075E-03	    2.069639E+02	
    5.077360E-04	    5.620044E-03	    4.499492E-01	   -1.000000E+00	    2.706526E-02	    1.200000E-02	    8.750000E+02	    1.004351E-01	    1.680816E-02	    1.078180E+02	    2.060674E+03	    1.000000E+00	    5.185075E-03	    2.069639E+02	
    1.717607E-03	    5.539830E-03	    4.467783E-01	   -1.000000E+00	    2.667514E-02	    1.200000E-02	    8.750000E+02	    9.783427E-02	    1.675054E-02	    1.101911E+02	    2.156825E+03	    1.000000E+00	    5.094731E-03	    2.110114E+02	
    3.342509E-03	    5.292453E-03	    4.362803E-01	   -1.000000E+00	    2.550689E-02	    1.200000E-02	    8.750000E+02	    9.004595E-02	    1.653210E-02	    1.183932E+02	    2.480089E+03	    1.000000E+00	    4.820018E-03	    2.233220E+02	