Title="Fields"
Variables="X""Y""Velocity""Phi""Effective Viscosity""Dynamic Viscosity""Density""Eddy Viscosity""K""Omega""S""F1SST""distance""GEN"
Zone I=82 J=82 F=POINT
   -1.214864E-02	    6.022430E-05	    0.000000E+00	   -1.000000E+00	    1.000000E-03	    1.000000E-03	    1.000000E+03	    0.000000E+00	    0.000000E+00	    1.029829E+09	    0.000000E+00	    1.000000E+00	    0.000000E+00	    0.000000E+00	
   -1.214850E-02	    6.958711E-05	    0.000000E+00	   -1.000000E+00	    1.000000E-03	    1.000000E-03	    1.000000E+03	    0.000000E+00	    0.000000E+00	    1.029829E+09	    0.000000E+00	    1.000000E+00	    0.000000E+00	    0.000000E+00	
   -1.214811E-02	    9.284917E-05	    0.000000E+00	   -1.000000E+00	    1.000000E-03	    1.000000E-03	    1.000000E+03	    0.000000E+00	    0.000000E+00	    5.784556E+08	    0.000000E+00	    1.000000E+00	    0.000000E+00	    0.000000E+00	
   -1.214753E-02	    1.236630E-04	    0.000000E+00	   -1.000000E+00	    1.000000E-03	    1.000000E-03	    1.000000E+03	    0.000000E+00	    0.000000E+00	    3.261000E+08	    0.000000E+00	    1.000000E+00	    0.000000E+00	    0.000000E+00	
   -1.214664E-02	    1.642119E-04	    0.000000E+00	   -1.000000E+00	    1.000000E-03	    1.000000E-03	    1.000000E+03	    0.000000E+00	    0.000000E+00	    1.849385E+08	    0.000000E+00	    1.000000E+00	    0.000000E+00	    0.000000E+00	
   -1.214528E-02	    2.171613E-04	    0.000000E+00	   -1.000000E+00	    1.000000E-03	    1.000000E-03	    1.000000E+03	    0.000000E+00	    0.000000E+00	    1.057497E+08	    0.000000E+00	    1.000000E+00	    0.000000E+00	    0.000000E+00	
   -1.214317E-02	    2.856999E-04	    0.000000E+00	   -1.000000E+00	    1.000000E-03	    1.000000E-03	    1.000000E+03	    0.000000E+00	    0.000000E+00	    6.109890E+07	    0.000000E+00	    1.000000E+00	    0.000000E+00	    0.000000E+00	
   -1.213991E-02	    3.735571E-04	    0.000000E+00	   -1.000000E+00	    1.000000E-03	    1.000000E-03	    1.000000E+03	    0.000000E+00	    0.000000E+00	    3.573981E+07	    0.000000E+00	    1.000000E+00	    0.000000E+00	    0.000000E+00	
   -1.213485E-02	    4.849849E-04	    0.000000E+00	   -1.000000E+00	    1.000000E-03	    1.000000E-03	    1.000000E+03	    0.000000E+00	    0.000000E+00	    2.120439E+07	    0.000000E+00	    1.000000E+00	    0.000000E+00	    0.000000E+00	
   -1.212706E-02	    6.246949E-04	    0.000000E+00	   -1.000000E+00	    1.000000E-03	    1.000000E-03	    1.000000E+03	    0.000000E+00	    0.000000E+00	    1.278104E+07	    0.000000E+00	    1.000000E+00	    0.000000E+00	    0.000000E+00	
   -1.211518E-02	    7.977369E-04	    0.000000E+00	   -1.000000E+00	    1.000000E-03	    1.000000E-03	    1.000000E+03	    0.000000E+00	    0.000000E+00	    7.838043E+06	    0.000000E+00	    1.000000E+00	    0.000000E+00	    0.000000E+00	
   -1.209726E-02	    1.009312E-03	    0.000000E+00	   -1.000000E+00	    1.000000E-03	    1.000000E-03	    1.000000E+03	    0.000000E+00	    0.000000E+00	    4.896735E+06	    0.000000E+00	    1.000000E+00	    0.000000E+00	    0.000000E+00	
   -1.207069E-02	    1.264512E-03	    0.000000E+00	   -1.000000E+00	    1.000000E-03	    1.000000E-03	    1.000000E+03	    0.000000E+00	    0.000000E+00	    3.119952E+06	    0.000000E+00	    1.000000E+00	    0.000000E+00	    0.000000E+00	
   -1.203196E-02	    1.567989E-03	    0.000000E+00	   -1.000000E+00	    1.000000E-03	    1.000000E-03	    1.000000E+03	    0.000000E+00	    0.000000E+00	    2.029324E+06	    0.000000E+00	    1.000000E+00	    0.000000E+00	    0.000000E+00	
   -1.197665E-02	    1.923554E-03	    0.000000E+00	   -1.000000E+00	    1.000000E-03	    1.000000E-03	    1.000000E+03	    0.000000E+00	    0.000000E+00	    1.348588E+06	    0.000000E+00	    1.000000E+00	    0.000000E+00	    0.000000E+00	
   -1.189934E-02	    2.333731E-03	    0.000000E+00	   -1.000000E+00	    1.000000E-03	    1.000000E-03	    1.000000E+03	    0.000000E+00	    0.000000E+00	    9.163160E+05	    0.000000E+00	    1.000000E+00	    0.000000E+00	    0.000000E+00	
   -1.179371E-02	    2.799291E-03	    0.000000E+00	   -1.000000E+00	    1.000000E-03	    1.000000E-03	    1.000000E+03	    0.000000E+00	    0.000000E+00	    6.369681E+05	    0.000000E+00	    1.000000E+00	    0.000000E+00	    0.000000E+00	
   -1.165276E-02	    3.318811E-03	    0.000000E+00	   -1.000000E+00	    1.000000E-03	    1.000000E-03	    1.000000E+03	    0.000000E+00	    0.000000E+00	    4.532350E+05	    0.000000E+00	    1.000000E+00	    0.000000E+00	    0.000000E+00	
   -1.146925E-02	    3.888331E-03	    0.000000E+00	   -1.000000E+00	    1.000000E-03	    1.000000E-03	    1.000000E+03	    0.000000E+00	    0.000000E+00	    3.302512E+05	    0.000000E+00	    1.000000E+00	    0.000000E+00	    0.000000E+00	
   -1.123626E-02	    4.501167E-03	    0.000000E+00	   -1.000000E+00	    1.000000E-03	    1.000000E-03	    1.000000E+03	    0.000000E+00	    0.000000E+00	    2.464960E+05	    0.000000E+00	    1.000000E+00	    0.000000E+00	    0.000000E+00	
   -1.094784E-02	    5.147962E-03	    0.000000E+00	   -1.000000E+00	    1.000000E-03	    1.000000E-03	    1.000000E+03	    0.000000E+00	    0.000000E+00	    1.884884E+05	    0.000000E+00	    1.000000E+00	    0.000000E+00	    0.000000E+00	
   -1.059983E-02	    5.817025E-03	    0.000000E+00	   -1.000000E+00	    1.000000E-03	    1.000000E-03	    1.000000E+03	    0.000000E+00	    0.000000E+00	    1.476569E+05	    0.000000E+00	    1.000000E+00	    0.000000E+00	    0.000000E+00	
   -1.019044E-02	    6.494952E-03	    0.000000E+00	   -1.000000E+00	    1.000000E-03	    1.000000E-03	    1.000000E+03	    0.000000E+00	    0.000000E+00	    1.184697E+05	    0.000000E+00	    1.000000E+00	    0.000000E+00	    0.000000E+00	
   -9.720744E-03	    7.167508E-03	    0.000000E+00	   -1.000000E+00	    1.000000E-03	    1.000000E-03	    1.000000E+03	    0.000000E+00	    0.000000E+00	    9.730360E+04	    0.000000E+00	    1.000000E+00	    0.000000E+00	    0.000000E+00	
   -9.194834E-03	    7.820637E-03	    0.000000E+00	   -1.000000E+00	    1.000000E-03	    1.000000E-03	    1.000000E+03	    0.000000E+00	    0.000000E+00	    8.175000E+04	    0.000000E+00	    1.000000E+00	    0.000000E+00	    0.000000E+00	
   -8.619619E-03	    8.441483E-03	    0.000000E+00	   -1.000000E+00	    1.000000E-03	    1.000000E-03	    1.000000E+03	    0.000000E+00	    0.000000E+00	    7.018439E+04	    0.000000E+00	    1.000000E+00	    0.000000E+00	    0.000000E+00	
   -8.004317E-03	    9.019255E-03	    0.000000E+00	   -1.000000E+00	    1.000000E-03	    1.000000E-03	    1.000000E+03	    0.000000E+00	    0.000000E+00	    6.149504E+04	    0.000000E+00	    1.000000E+00	    0.000000E+00	    0.000000E+00	
   -7.359702E-03	    9.545831E-03	    0.000000E+00	   -1.000000E+00	    1.000000E-03	    1.000000E-03	    1.000000E+03	    0.000000E+00	    0.000000E+00	    5.491016E+04	    0.000000E+00	    1.000000E+00	    0.000000E+00	    0.000000E+00	
   -6.697247E-03	    1.001602E-02	    0.000000E+00	   -1.000000E+00	    1.000000E-03	    1.000000E-03	    1.000000E+03	    0.000000E+00	    0.000000E+00	    4.988638E+04	    0.000000E+00	    1.000000E+00	    0.000000E+00	    0.000000E+00	
   -6.028288E-03	    1.042754E-02	    0.000000E+00	   -1.000000E+00	    1.000000E-03	    1.000000E-03	    1.000000E+03	    0.000000E+00	    0.000000E+00	    4.603561E+04	    0.000000E+00	    1.000000E+00	    0.000000E+00	    0.000000E+00	
   -5.363328E-03	    1.078067E-02	    0.000000E+00	   -1.000000E+00	    1.000000E-03	    1.000000E-03	    1.000000E+03	    0.000000E+00	    0.000000E+00	    4.307672E+04	    0.000000E+00	    1.000000E+00	    0.000000E+00	    0.000000E+00	
   -4.711536E-03	    1.107778E-02	    0.000000E+00	   -1.000000E+00	    1.000000E-03	    1.000000E-03	    1.000000E+03	    0.000000E+00	    0.000000E+00	    4.080326E+04	    0.000000E+00	    1.000000E+00	    0.000000E+00	    0.000000E+00	
   -4.080454E-03	    1.132282E-02	    0.000000E+00	   -1.000000E+00	    1.000000E-03	    1.000000E-03	    1.000000E+03	    0.000000E+00	    0.000000E+00	    3.906146E+04	    0.000000E+00	    1.000000E+00	    0.000000E+00	    0.000000E+00	
   -3.475907E-03	    1.152069E-02	    0.000000E+00	   -1.000000E+00	    1.000000E-03	    1.000000E-03	    1.000000E+03	    0.000000E+00	    0.000000E+00	    3.773530E+04	    0.000000E+00	    1.000000E+00	    0.000000E+00	    0.000000E+00	
   -2.902065E-03	    1.167683E-02	    0.000000E+00	   -1.000000E+00	    1.000000E-03	    1.000000E-03	    1.000000E+03	    0.000000E+00	    0.000000E+00	    3.673612E+04	    0.000000E+00	    1.000000E+00	    0.000000E+00	    0.000000E+00	
   -2.361599E-03	    1.179678E-02	    0.000000E+00	   -1.000000E+00	    1.000000E-03	    1.000000E-03	    1.000000E+03	    0.000000E+00	    0.000000E+00	    3.599533E+04	    0.000000E+00	    1.000000E+00	    0.000000E+00	    0.000000E+00	
   -1.855907E-03	    1.188592E-02	    0.000000E+00	   -1.000000E+00	    1.000000E-03	    1.000000E-03	    1.000000E+03	    0.000000E+00	    0.000000E+00	    3.545929E+04	    0.000000E+00	    1.000000E+00	    0.000000E+00	    0.000000E+00	
   -1.385345E-03	    1.194926E-02	    0.000000E+00	   -1.000000E+00	    1.000000E-03	    1.000000E-03	    1.000000E+03	    0.000000E+00	    0.000000E+00	    3.508565E+04	    0.000000E+00	    1.000000E+00	    0.000000E+00	    0.000000E+00	
   -9.494686E-04	    1.199134E-02	    0.000000E+00	   -1.000000E+00	    1.000000E-03	    1.000000E-03	    1.000000E+03	    0.000000E+00	    0.000000E+00	    3.484069E+04	    0.000000E+00	    1.000000E+00	    0.000000E+00	    0.000000E+00	
   -5.472339E-04	    1.201617E-02	    0.000000E+00	   -1.000000E+00	    1.000000E-03	    1.000000E-03	    1.000000E+03	    0.000000E+00	    0.000000E+00	    3.469740E+04	    0.000000E+00	    1.000000E+00	    0.000000E+00	    0.000000E+00	
   -1.771813E-04	    1.202721E-02	    0.000000E+00	   -1.000000E+00	    1.000000E-03	    1.000000E-03	    1.000000E+03	    0.000000E+00	    0.000000E+00	    3.463397E+04	    0.000000E+00	    1.000000E+00	    0.000000E+00	    0.000000E+00	
    1.771813E-04	    1.202721E-02	    0.000000E+00	   -1.000000E+00	    1.000000E-03	    1.000000E-03	    1.000000E+03	    0.000000E+00	    0.000000E+00	    3.463397E+04	    0.000000E+00	    1.000000E+00	    0.000000E+00	    0.000000E+00	
    5.472339E-04	    1.201617E-02	    0.000000E+00	   -1.000000E+00	    1.000000E-03	    1.000000E-03	    1.000000E+03	    0.000000E+00	    0.000000E+00	    3.469740E+04	    0.000000E+00	    1.000000E+00	    0.000000E+00	    0.000000E+00	
    9.494686E-04	    1.199134E-02	    0.000000E+00	   -1.000000E+00	    1.000000E-03	    1.000000E-03	    1.000000E+03	    0.000000E+00	    0.000000E+00	    3.484069E+04	    0.000000E+00	    1.000000E+00	    0.000000E+00	    0.000000E+00	
    1.385345E-03	    1.194926E-02	    0.000000E+00	   -1.000000E+00	    1.000000E-03	    1.000000E-03	    1.000000E+03	    0.000000E+00	    0.000000E+00	    3.508565E+04	    0.000000E+00	    1.000000E+00	    0.000000E+00	    0.000000E+00	
    1.855907E-03	    1.188592E-02	    0.000000E+00	   -1.000000E+00	    1.000000E-03	    1.000000E-03	    1.000000E+03	    0.000000E+00	    0.000000E+00	    3.545929E+04	    0.000000E+00	    1.000000E+00	    0.000000E+00	    0.000000E+00	
    2.361599E-03	    1.179678E-02	    0.000000E+00	   -1.000000E+00	    1.000000E-03	    1.000000E-03	    1.000000E+03	    0.000000E+00	    0.000000E+00	    3.599533E+04	    0.000000E+00	    1.000000E+00	    0.000000E+00	    0.000000E+00	
    2.902065E-03	    1.167683E-02	    0.000000E+00	   -1.000000E+00	    1.000000E-03	    1.000000E-03	    1.000000E+03	    0.000000E+00	    0.000000E+00	    3.673612E+04	    0.000000E+00	    1.000000E+00	    0.000000E+00	    0.000000E+00	
    3.475907E-03	    1.152069E-02	    0.000000E+00	   -1.000000E+00	    1.000000E-03	    1.000000E-03	    1.000000E+03	    0.000000E+00	    0.000000E+00	    3.773530E+04	    0.000000E+00	    1.000000E+00	    0.000000E+00	    0.000000E+00	
    4.080454E-03	    1.132282E-02	    0.000000E+00	   -1.000000E+00	    1.000000E-03	    1.000000E-03	    1.000000E+03	    0.000000E+00	    0.000000E+00	    3.906146E+04	    0.000000E+00	    1.000000E+00	    0.000000E+00	    0.000000E+00	
    4.711536E-03	    1.107778E-02	    0.000000E+00	   -1.000000E+00	    1.000000E-03	    1.000000E-03	    1.000000E+03	    0.000000E+00	    0.000000E+00	    4.080326E+04	    0.000000E+00	    1.000000E+00	    0.000000E+00	    0.000000E+00	
    5.363328E-03	    1.078067E-02	    0.000000E+00	   -1.000000E+00	    1.000000E-03	    1.000000E-03	    1.000000E+03	    0.000000E+00	    0.000000E+00	    4.307672E+04	    0.000000E+00	    1.000000E+00	    0.000000E+00	    0.000000E+00	
    6.028288E-03	    1.042754E-02	    0.000000E+00	   -1.000000E+00	    1.000000E-03	    1.000000E-03	    1.000000E+03	    0.000000E+00	    0.000000E+00	    4.603561E+04	    0.000000E+00	    1.000000E+00	    0.000000E+00	    0.000000E+00	
    6.697247E-03	    1.001602E-02	    0.000000E+00	   -1.000000E+00	    1.000000E-03	    1.000000E-03	    1.000000E+03	    0.000000E+00	    0.000000E+00	    4.988638E+04	    0.000000E+00	    1.000000E+00	    0.000000E+00	    0.000000E+00	
    7.359702E-03	    9.545831E-03	    0.000000E+00	   -1.000000E+00	    1.000000E-03	    1.000000E-03	    1.000000E+03	    0.000000E+00	    0.000000E+00	    5.491016E+04	    0.000000E+00	    1.000000E+00	    0.000000E+00	    0.000000E+00	
    8.004317E-03	    9.019255E-03	    0.000000E+00	   -1.000000E+00	    1.000000E-03	    1.000000E-03	    1.000000E+03	    0.000000E+00	    0.000000E+00	    6.149504E+04	    0.000000E+00	    1.000000E+00	    0.000000E+00	    0.000000E+00	
    8.619619E-03	    8.441483E-03	    0.000000E+00	   -1.000000E+00	    1.000000E-03	    1.000000E-03	    1.000000E+03	    0.000000E+00	    0.000000E+00	    7.018439E+04	    0.000000E+00	    1.000000E+00	    0.000000E+00	    0.000000E+00	
    9.194834E-03	    7.820637E-03	    0.000000E+00	   -1.000000E+00	    1.000000E-03	    1.000000E-03	    1.000000E+03	    0.000000E+00	    0.000000E+00	    8.175000E+04	    0.000000E+00	    1.000000E+00	    0.000000E+00	    0.000000E+00	
    9.720744E-03	    7.167508E-03	    0.000000E+00	   -1.000000E+00	    1.000000E-03	    1.000000E-03	    1.000000E+03	    0.000000E+00	    0.000000E+00	    9.730360E+04	    0.000000E+00	    1.000000E+00	    0.000000E+00	    0.000000E+00	
    1.019044E-02	    6.494952E-03	    0.000000E+00	   -1.000000E+00	    1.000000E-03	    1.000000E-03	    1.000000E+03	    0.000000E+00	    0.000000E+00	    1.184697E+05	    0.000000E+00	    1.000000E+00	    0.000000E+00	    0.000000E+00	
    1.059983E-02	    5.817025E-03	    0.000000E+00	   -1.000000E+00	    1.000000E-03	    1.000000E-03	    1.000000E+03	    0.000000E+00	    0.000000E+00	    1.476569E+05	    0.000000E+00	    1.000000E+00	    0.000000E+00	    0.000000E+00	
    1.094784E-02	    5.147962E-03	    0.000000E+00	   -1.000000E+00	    1.000000E-03	    1.000000E-03	    1.000000E+03	    0.000000E+00	    0.000000E+00	    1.884884E+05	    0.000000E+00	    1.000000E+00	    0.000000E+00	    0.000000E+00	
    1.123626E-02	    4.501167E-03	    0.000000E+00	   -1.000000E+00	    1.000000E-03	    1.000000E-03	    1.000000E+03	    0.000000E+00	    0.000000E+00	    2.464960E+05	    0.000000E+00	    1.000000E+00	    0.000000E+00	    0.000000E+00	
    1.146925E-02	    3.888331E-03	    0.000000E+00	   -1.000000E+00	    1.000000E-03	    1.000000E-03	    1.000000E+03	    0.000000E+00	    0.000000E+00	    3.302512E+05	    0.000000E+00	    1.000000E+00	    0.000000E+00	    0.000000E+00	
    1.165276E-02	    3.318811E-03	    0.000000E+00	   -1.000000E+00	    1.000000E-03	    1.000000E-03	    1.000000E+03	    0.000000E+00	    0.000000E+00	    4.532350E+05	    0.000000E+00	    1.000000E+00	    0.000000E+00	    0.000000E+00	
    1.179371E-02	    2.799291E-03	    0.000000E+00	   -1.000000E+00	    1.000000E-03	    1.000000E-03	    1.000000E+03	    0.000000E+00	    0.000000E+00	    6.369681E+05	    0.000000E+00	    1.000000E+00	    0.000000E+00	    0.000000E+00	
    1.189934E-02	    2.333731E-03	    0.000000E+00	   -1.000000E+00	    1.000000E-03	    1.000000E-03	    1.000000E+03	    0.000000E+00	    0.000000E+00	    9.163160E+05	    0.000000E+00	    1.000000E+00	    0.000000E+00	    0.000000E+00	
    1.197665E-02	    1.923554E-03	    0.000000E+00	   -1.000000E+00	    1.000000E-03	    1.000000E-03	    1.000000E+03	    0.000000E+00	    0.000000E+00	    1.348588E+06	    0.000000E+00	    1.000000E+00	    0.000000E+00	    0.000000E+00	
    1.203196E-02	    1.567989E-03	    0.000000E+00	   -1.000000E+00	    1.000000E-03	    1.000000E-03	    1.000000E+03	    0.000000E+00	    0.000000E+00	    2.029324E+06	    0.000000E+00	    1.000000E+00	    0.000000E+00	    0.000000E+00	
    1.207069E-02	    1.264512E-03	    0.000000E+00	   -1.000000E+00	    1.000000E-03	    1.000000E-03	    1.000000E+03	    0.000000E+00	    0.000000E+00	    3.119952E+06	    0.000000E+00	    1.000000E+00	    0.000000E+00	    0.000000E+00	
    1.209726E-02	    1.009312E-03	    0.000000E+00	   -1.000000E+00	    1.000000E-03	    1.000000E-03	    1.000000E+03	    0.000000E+00	    0.000000E+00	    4.896735E+06	    0.000000E+00	    1.000000E+00	    0.000000E+00	    0.000000E+00	
    1.211518E-02	    7.977369E-04	    0.000000E+00	   -1.000000E+00	    1.000000E-03	    1.000000E-03	    1.000000E+03	    0.000000E+00	    0.000000E+00	    7.838043E+06	    0.000000E+00	    1.000000E+00	    0.000000E+00	    0.000000E+00	
    1.212706E-02	    6.246949E-04	    0.000000E+00	   -1.000000E+00	    1.000000E-03	    1.000000E-03	    1.000000E+03	    0.000000E+00	    0.000000E+00	    1.278104E+07	    0.000000E+00	    1.000000E+00	    0.000000E+00	    0.000000E+00	
    1.213485E-02	    4.849849E-04	    0.000000E+00	   -1.000000E+00	    1.000000E-03	    1.000000E-03	    1.000000E+03	    0.000000E+00	    0.000000E+00	    2.120439E+07	    0.000000E+00	    1.000000E+00	    0.000000E+00	    0.000000E+00	
    1.213991E-02	    3.735571E-04	    0.000000E+00	   -1.000000E+00	    1.000000E-03	    1.000000E-03	    1.000000E+03	    0.000000E+00	    0.000000E+00	    3.573981E+07	    0.000000E+00	    1.000000E+00	    0.000000E+00	    0.000000E+00	
    1.214317E-02	    2.856999E-04	    0.000000E+00	   -1.000000E+00	    1.000000E-03	    1.000000E-03	    1.000000E+03	    0.000000E+00	    0.000000E+00	    6.109890E+07	    0.000000E+00	    1.000000E+00	    0.000000E+00	    0.000000E+00	
    1.214528E-02	    2.171613E-04	    0.000000E+00	   -1.000000E+00	    1.000000E-03	    1.000000E-03	    1.000000E+03	    0.000000E+00	    0.000000E+00	    1.057497E+08	    0.000000E+00	    1.000000E+00	    0.000000E+00	    0.000000E+00	
    1.214664E-02	    1.642119E-04	    0.000000E+00	   -1.000000E+00	    1.000000E-03	    1.000000E-03	    1.000000E+03	    0.000000E+00	    0.000000E+00	    1.849385E+08	    0.000000E+00	    1.000000E+00	    0.000000E+00	    0.000000E+00	
    1.214753E-02	    1.236630E-04	    0.000000E+00	   -1.000000E+00	    1.000000E-03	    1.000000E-03	    1.000000E+03	    0.000000E+00	    0.000000E+00	    3.261000E+08	    0.000000E+00	    1.000000E+00	    0.000000E+00	    0.000000E+00	
    1.214811E-02	    9.284917E-05	    0.000000E+00	   -1.000000E+00	    1.000000E-03	    1.000000E-03	    1.000000E+03	    0.000000E+00	    0.000000E+00	    5.784556E+08	    0.000000E+00	    1.000000E+00	    0.000000E+00	    0.000000E+00	
    1.214850E-02	    6.958711E-05	    0.000000E+00	   -1.000000E+00	    1.000000E-03	    1.000000E-03	    1.000000E+03	    0.000000E+00	    0.000000E+00	    1.029829E+09	    0.000000E+00	    1.000000E+00	    0.000000E+00	    0.000000E+00	
    1.214864E-02	    6.022430E-05	    0.000000E+00	   -1.000000E+00	    1.000000E-03	    1.000000E-03	    1.000000E+03	    0.000000E+00	    0.000000E+00	    0.000000E+00	    0.000000E+00	    1.000000E+00	    0.000000E+00	    0.000000E+00	
   -1.214840E-02	    6.022021E-05	    0.000000E+00	   -1.000000E+00	    1.000000E-03	    1.000000E-03	    1.000000E+03	    0.000000E+00	    0.000000E+00	    0.000000E+00	    0.000000E+00	    1.000000E+00	    0.000000E+00	    0.000000E+00	
   -1.214822E-02	    6.958217E-05	    6.406260E-05	   -1.000000E+00	    1.000000E-03	    1.000000E-03	    1.000000E+03	    6.361042E-16	    6.550785E-10	    1.029829E+09	    5.285350E+04	    1.000000E+00	    2.787164E-07	    2.819703E+01	
   -1.214774E-02	    9.284187E-05	    1.968902E-04	   -1.000000E+00	    1.000000E-03	    1.000000E-03	    1.000000E+03	    2.193988E-15	    1.269125E-09	    5.784556E+08	    2.802724E+05	    1.000000E+00	    3.718861E-07	    6.775373E+01	
   -1.214703E-02	    1.236520E-04	    3.461087E-04	   -1.000000E+00	    1.000000E-03	    1.000000E-03	    1.000000E+03	    1.205717E-14	    3.931843E-09	    3.261000E+08	    4.882220E+05	    1.000000E+00	    4.953014E-07	    1.181812E+02	
   -1.214598E-02	    1.641951E-04	    5.238718E-04	   -1.000000E+00	    1.000000E-03	    1.000000E-03	    1.000000E+03	    4.896858E-14	    9.056174E-09	    1.849385E+08	    6.343128E+05	    1.000000E+00	    6.577053E-07	    1.539613E+02	
   -1.214441E-02	    2.171353E-04	    7.432301E-04	   -1.000000E+00	    1.000000E-03	    1.000000E-03	    1.000000E+03	    1.736676E-13	    1.836530E-08	    1.057497E+08	    7.300169E+05	    1.000000E+00	    8.697720E-07	    1.778642E+02	
   -1.214203E-02	    2.856593E-04	    1.017449E-03	   -1.000000E+00	    1.000000E-03	    1.000000E-03	    1.000000E+03	    5.689119E-13	    3.475989E-08	    6.109890E+07	    7.903887E+05	    1.000000E+00	    1.144269E-06	    1.935407E+02	
   -1.213842E-02	    3.734931E-04	    1.359727E-03	   -1.000000E+00	    1.000000E-03	    1.000000E-03	    1.000000E+03	    1.759223E-12	    6.287431E-08	    3.573981E+07	    8.256661E+05	    1.000000E+00	    1.496128E-06	    2.034827E+02	
   -1.213291E-02	    4.848841E-04	    1.784661E-03	   -1.000000E+00	    1.000000E-03	    1.000000E-03	    1.000000E+03	    5.191897E-12	    1.100910E-07	    2.120439E+07	    8.438052E+05	    1.000000E+00	    1.942371E-06	    2.096738E+02	
   -1.212457E-02	    6.245362E-04	    2.309272E-03	   -1.000000E+00	    1.000000E-03	    1.000000E-03	    1.000000E+03	    1.472560E-11	    1.882085E-07	    1.278104E+07	    8.514637E+05	    1.000000E+00	    2.501853E-06	    2.138199E+02	
   -1.211199E-02	    7.974888E-04	    2.952024E-03	   -1.000000E+00	    1.000000E-03	    1.000000E-03	    1.000000E+03	    4.028345E-11	    3.157434E-07	    7.838043E+06	    8.531532E+05	    1.000000E+00	    3.194782E-06	    2.171109E+02	
   -1.209324E-02	    1.008928E-03	    3.731843E-03	   -1.000000E+00	    1.000000E-03	    1.000000E-03	    1.000000E+03	    1.064452E-10	    5.212338E-07	    4.896735E+06	    8.516213E+05	    1.000000E+00	    4.041957E-06	    2.203094E+02	
   -1.206566E-02	    1.263924E-03	    4.664892E-03	   -1.000000E+00	    1.000000E-03	    1.000000E-03	    1.000000E+03	    2.714141E-10	    8.467989E-07	    3.119952E+06	    8.476551E+05	    1.000000E+00	    5.063736E-06	    2.236488E+02	
   -1.202575E-02	    1.567103E-03	    5.767249E-03	   -1.000000E+00	    1.000000E-03	    1.000000E-03	    1.000000E+03	    6.676252E-10	    1.354828E-06	    2.029324E+06	    8.424623E+05	    1.000000E+00	    6.278694E-06	    2.274830E+02	
   -1.196906E-02	    1.922243E-03	    7.050171E-03	   -1.000000E+00	    1.000000E-03	    1.000000E-03	    1.000000E+03	    1.581763E-09	    2.133148E-06	    1.348588E+06	    8.363552E+05	    1.000000E+00	    7.702032E-06	    2.318870E+02	
   -1.189019E-02	    2.331825E-03	    8.520260E-03	   -1.000000E+00	    1.000001E-03	    1.000000E-03	    1.000000E+03	    3.603522E-09	    3.301965E-06	    9.163160E+05	    8.296356E+05	    1.000000E+00	    9.343777E-06	    2.369032E+02	
   -1.178283E-02	    2.796576E-03	    1.017945E-02	   -1.000000E+00	    1.000001E-03	    1.000000E-03	    1.000000E+03	    7.882802E-09	    5.021093E-06	    6.369681E+05	    8.228090E+05	    1.000000E+00	    1.120692E-05	    2.426205E+02	
   -1.164002E-02	    3.315025E-03	    1.201572E-02	   -1.000000E+00	    1.000002E-03	    1.000000E-03	    1.000000E+03	    1.650434E-08	    7.480346E-06	    4.532350E+05	    8.153036E+05	    1.000000E+00	    1.328568E-05	    2.487252E+02	
   -1.145457E-02	    3.883167E-03	    1.401270E-02	   -1.000000E+00	    1.000005E-03	    1.000000E-03	    1.000000E+03	    3.300624E-08	    1.090035E-05	    3.302512E+05	    8.074378E+05	    1.000000E+00	    1.556409E-05	    2.551359E+02	
   -1.121961E-02	    4.494282E-03	    1.616088E-02	   -1.000000E+00	    1.000009E-03	    1.000000E-03	    1.000000E+03	    6.314263E-08	    1.556441E-05	    2.464960E+05	    8.010124E+05	    1.000000E+00	    1.801531E-05	    2.624368E+02	
   -1.092930E-02	    5.138994E-03	    1.839691E-02	   -1.000000E+00	    1.000017E-03	    1.000000E-03	    1.000000E+03	    1.146453E-07	    2.160931E-05	    1.884884E+05	    7.930152E+05	    1.000000E+00	    2.060183E-05	    2.691724E+02	
   -1.057954E-02	    5.805612E-03	    2.071311E-02	   -1.000000E+00	    1.000030E-03	    1.000000E-03	    1.000000E+03	    1.986167E-07	    2.932712E-05	    1.476569E+05	    7.866327E+05	    1.000000E+00	    2.327681E-05	    2.765729E+02	
   -1.016867E-02	    6.480764E-03	    2.305249E-02	   -1.000000E+00	    1.000049E-03	    1.000000E-03	    1.000000E+03	    3.271884E-07	    3.876192E-05	    1.184697E+05	    7.806780E+05	    1.000000E+00	    2.598664E-05	    2.839206E+02	
   -9.697830E-03	    7.150269E-03	    2.534241E-02	   -1.000000E+00	    1.000077E-03	    1.000000E-03	    1.000000E+03	    5.112085E-07	    4.974243E-05	    9.730360E+04	    7.735729E+05	    1.000000E+00	    2.867440E-05	    2.904020E+02	
   -9.171190E-03	    7.800151E-03	    2.757356E-02	   -1.000000E+00	    1.000114E-03	    1.000000E-03	    1.000000E+03	    7.621111E-07	    6.230259E-05	    8.175000E+04	    7.677583E+05	    1.000000E+00	    3.128395E-05	    2.970841E+02	
   -8.595699E-03	    8.417653E-03	    2.970027E-02	   -1.000000E+00	    1.000163E-03	    1.000000E-03	    1.000000E+03	    1.084092E-06	    7.608634E-05	    7.018439E+04	    7.627911E+05	    1.000000E+00	    3.376400E-05	    3.035866E+02	
   -7.980589E-03	    8.992087E-03	    3.169046E-02	   -1.000000E+00	    1.000221E-03	    1.000000E-03	    1.000000E+03	    1.474343E-06	    9.066480E-05	    6.149504E+04	    7.587078E+05	    1.000000E+00	    3.607154E-05	    3.098100E+02	
   -7.336616E-03	    9.515429E-03	    3.346732E-02	   -1.000000E+00	    1.000287E-03	    1.000000E-03	    1.000000E+03	    1.911137E-06	    1.049408E-04	    5.491016E+04	    7.531901E+05	    1.000000E+00	    3.817421E-05	    3.142894E+02	
   -6.675207E-03	    9.982582E-03	    3.505612E-02	   -1.000000E+00	    1.000358E-03	    1.000000E-03	    1.000000E+03	    2.383626E-06	    1.189105E-04	    4.988638E+04	    7.483416E+05	    1.000000E+00	    4.005144E-05	    3.183569E+02	
   -6.007637E-03	    1.039132E-02	    3.645037E-02	   -1.000000E+00	    1.000431E-03	    1.000000E-03	    1.000000E+03	    2.871007E-06	    1.321685E-04	    4.603561E+04	    7.441754E+05	    1.000000E+00	    4.169417E-05	    3.220268E+02	
   -5.344335E-03	    1.074197E-02	    3.764830E-02	   -1.000000E+00	    1.000503E-03	    1.000000E-03	    1.000000E+03	    3.350653E-06	    1.443352E-04	    4.307672E+04	    7.405675E+05	    1.000000E+00	    4.310363E-05	    3.252224E+02	
   -4.694393E-03	    1.103695E-02	    3.865696E-02	   -1.000000E+00	    1.000570E-03	    1.000000E-03	    1.000000E+03	    3.802482E-06	    1.551537E-04	    4.080326E+04	    7.374777E+05	    1.000000E+00	    4.428941E-05	    3.279333E+02	
   -4.065280E-03	    1.128017E-02	    3.948917E-02	   -1.000000E+00	    1.000632E-03	    1.000000E-03	    1.000000E+03	    4.210943E-06	    1.644856E-04	    3.906146E+04	    7.348802E+05	    1.000000E+00	    4.526725E-05	    3.301797E+02	
   -3.462757E-03	    1.147655E-02	    4.016139E-02	   -1.000000E+00	    1.000685E-03	    1.000000E-03	    1.000000E+03	    4.565942E-06	    1.722972E-04	    3.773530E+04	    7.327452E+05	    1.000000E+00	    4.605682E-05	    3.319989E+02	
   -2.890937E-03	    1.163149E-02	    4.069193E-02	   -1.000000E+00	    1.000729E-03	    1.000000E-03	    1.000000E+03	    4.862735E-06	    1.786380E-04	    3.673612E+04	    7.310347E+05	    1.000000E+00	    4.667982E-05	    3.334368E+02	
   -2.352451E-03	    1.175052E-02	    4.109954E-02	   -1.000000E+00	    1.000765E-03	    1.000000E-03	    1.000000E+03	    5.101120E-06	    1.836165E-04	    3.599533E+04	    7.297039E+05	    1.000000E+00	    4.715841E-05	    3.345423E+02	
   -1.848663E-03	    1.183896E-02	    4.140244E-02	   -1.000000E+00	    1.000793E-03	    1.000000E-03	    1.000000E+03	    5.284281E-06	    1.873768E-04	    3.545929E+04	    7.287045E+05	    1.000000E+00	    4.751407E-05	    3.353638E+02	
   -1.379910E-03	    1.190181E-02	    4.161764E-02	   -1.000000E+00	    1.000813E-03	    1.000000E-03	    1.000000E+03	    5.417606E-06	    1.900802E-04	    3.508565E+04	    7.279874E+05	    1.000000E+00	    4.776679E-05	    3.359469E+02	
   -9.457302E-04	    1.194356E-02	    4.176053E-02	   -1.000000E+00	    1.000826E-03	    1.000000E-03	    1.000000E+03	    5.507639E-06	    1.918900E-04	    3.484069E+04	    7.275058E+05	    1.000000E+00	    4.793468E-05	    3.363328E+02	
   -5.450748E-04	    1.196818E-02	    4.184469E-02	   -1.000000E+00	    1.000834E-03	    1.000000E-03	    1.000000E+03	    5.561275E-06	    1.929618E-04	    3.469740E+04	    7.272163E+05	    1.000000E+00	    4.803372E-05	    3.365583E+02	
   -1.764816E-04	    1.197914E-02	    4.188186E-02	   -1.000000E+00	    1.000838E-03	    1.000000E-03	    1.000000E+03	    5.585183E-06	    1.934370E-04	    3.463397E+04	    7.270791E+05	    1.000000E+00	    4.807776E-05	    3.366543E+02	
    1.764816E-04	    1.197914E-02	    4.188186E-02	   -1.000000E+00	    1.000838E-03	    1.000000E-03	    1.000000E+03	    5.585183E-06	    1.934370E-04	    3.463397E+04	    7.270791E+05	    1.000000E+00	    4.807776E-05	    3.366543E+02	