Title="Fields"
Variables="X""Y""Velocity""Phi""Effective Viscosity""Dynamic Viscosity""Density""Eddy Viscosity""K""Omega""S""F1SST""distance""GEN"
Zone I=52 J=52 F=POINT
   -1.214864E-02	    6.022430E-05	    0.000000E+00	    0.000000E+00	    1.000000E-03	    1.000000E-03	    1.000000E+03	    0.000000E+00	    0.000000E+00	    3.039697E+08	    0.000000E+00	    1.000000E+00	    0.000000E+00	    0.000000E+00	
   -1.214840E-02	    7.587059E-05	    0.000000E+00	    0.000000E+00	    1.000000E-03	    1.000000E-03	    1.000000E+03	    0.000000E+00	    0.000000E+00	    3.039697E+08	    0.000000E+00	    1.000000E+00	    0.000000E+00	    0.000000E+00	
   -1.214760E-02	    1.201162E-04	    0.000000E+00	    0.000000E+00	    1.000000E-03	    1.000000E-03	    1.000000E+03	    0.000000E+00	    0.000000E+00	    1.212788E+08	    0.000000E+00	    1.000000E+00	    0.000000E+00	    0.000000E+00	
   -1.214604E-02	    1.887791E-04	    0.000000E+00	    0.000000E+00	    1.000000E-03	    1.000000E-03	    1.000000E+03	    0.000000E+00	    0.000000E+00	    4.910171E+07	    0.000000E+00	    1.000000E+00	    0.000000E+00	    0.000000E+00	
   -1.214292E-02	    2.931943E-04	    0.000000E+00	    0.000000E+00	    1.000000E-03	    1.000000E-03	    1.000000E+03	    0.000000E+00	    0.000000E+00	    2.035722E+07	    0.000000E+00	    1.000000E+00	    0.000000E+00	    0.000000E+00	
   -1.213664E-02	    4.481479E-04	    0.000000E+00	    0.000000E+00	    1.000000E-03	    1.000000E-03	    1.000000E+03	    0.000000E+00	    0.000000E+00	    8.714137E+06	    0.000000E+00	    1.000000E+00	    0.000000E+00	    0.000000E+00	
   -1.212408E-02	    6.717413E-04	    0.000000E+00	    0.000000E+00	    1.000000E-03	    1.000000E-03	    1.000000E+03	    0.000000E+00	    0.000000E+00	    3.878976E+06	    0.000000E+00	    1.000000E+00	    0.000000E+00	    0.000000E+00	
   -1.209956E-02	    9.844691E-04	    0.000000E+00	    0.000000E+00	    1.000000E-03	    1.000000E-03	    1.000000E+03	    0.000000E+00	    0.000000E+00	    1.806311E+06	    0.000000E+00	    1.000000E+00	    0.000000E+00	    0.000000E+00	
   -1.205344E-02	    1.407248E-03	    0.000000E+00	    0.000000E+00	    1.000000E-03	    1.000000E-03	    1.000000E+03	    0.000000E+00	    0.000000E+00	    8.842153E+05	    0.000000E+00	    1.000000E+00	    0.000000E+00	    0.000000E+00	
   -1.197068E-02	    1.958259E-03	    0.000000E+00	    0.000000E+00	    1.000000E-03	    1.000000E-03	    1.000000E+03	    0.000000E+00	    0.000000E+00	    4.567648E+05	    0.000000E+00	    1.000000E+00	    0.000000E+00	    0.000000E+00	
   -1.182998E-02	    2.648730E-03	    0.000000E+00	    0.000000E+00	    1.000000E-03	    1.000000E-03	    1.000000E+03	    0.000000E+00	    0.000000E+00	    2.497621E+05	    0.000000E+00	    1.000000E+00	    0.000000E+00	    0.000000E+00	
   -1.160451E-02	    3.478208E-03	    0.000000E+00	    0.000000E+00	    1.000000E-03	    1.000000E-03	    1.000000E+03	    0.000000E+00	    0.000000E+00	    1.449102E+05	    0.000000E+00	    1.000000E+00	    0.000000E+00	    0.000000E+00	
   -1.126508E-02	    4.430482E-03	    0.000000E+00	    0.000000E+00	    1.000000E-03	    1.000000E-03	    1.000000E+03	    0.000000E+00	    0.000000E+00	    8.936344E+04	    0.000000E+00	    1.000000E+00	    0.000000E+00	    0.000000E+00	
   -1.078595E-02	    5.471869E-03	    0.000000E+00	    0.000000E+00	    1.000000E-03	    1.000000E-03	    1.000000E+03	    0.000000E+00	    0.000000E+00	    5.862651E+04	    0.000000E+00	    1.000000E+00	    0.000000E+00	    0.000000E+00	
   -1.015216E-02	    6.553542E-03	    0.000000E+00	    0.000000E+00	    1.000000E-03	    1.000000E-03	    1.000000E+03	    0.000000E+00	    0.000000E+00	    4.090575E+04	    0.000000E+00	    1.000000E+00	    0.000000E+00	    0.000000E+00	
   -9.365676E-03	    7.618437E-03	    0.000000E+00	    0.000000E+00	    1.000000E-03	    1.000000E-03	    1.000000E+03	    0.000000E+00	    0.000000E+00	    3.030091E+04	    0.000000E+00	    1.000000E+00	    0.000000E+00	    0.000000E+00	
   -8.447592E-03	    8.611236E-03	    0.000000E+00	    0.000000E+00	    1.000000E-03	    1.000000E-03	    1.000000E+03	    0.000000E+00	    0.000000E+00	    2.374581E+04	    0.000000E+00	    1.000000E+00	    0.000000E+00	    0.000000E+00	
   -7.434908E-03	    9.488112E-03	    0.000000E+00	    0.000000E+00	    1.000000E-03	    1.000000E-03	    1.000000E+03	    0.000000E+00	    0.000000E+00	    1.958664E+04	    0.000000E+00	    1.000000E+00	    0.000000E+00	    0.000000E+00	
   -6.373132E-03	    1.022286E-02	    0.000000E+00	    0.000000E+00	    1.000000E-03	    1.000000E-03	    1.000000E+03	    0.000000E+00	    0.000000E+00	    1.689682E+04	    0.000000E+00	    1.000000E+00	    0.000000E+00	    0.000000E+00	
   -5.307702E-03	    1.080785E-02	    0.000000E+00	    0.000000E+00	    1.000000E-03	    1.000000E-03	    1.000000E+03	    0.000000E+00	    0.000000E+00	    1.513811E+04	    0.000000E+00	    1.000000E+00	    0.000000E+00	    0.000000E+00	
   -4.277189E-03	    1.125075E-02	    0.000000E+00	    0.000000E+00	    1.000000E-03	    1.000000E-03	    1.000000E+03	    0.000000E+00	    0.000000E+00	    1.398650E+04	    0.000000E+00	    1.000000E+00	    0.000000E+00	    0.000000E+00	
   -3.309761E-03	    1.156901E-02	    0.000000E+00	    0.000000E+00	    1.000000E-03	    1.000000E-03	    1.000000E+03	    0.000000E+00	    0.000000E+00	    1.324015E+04	    0.000000E+00	    1.000000E+00	    0.000000E+00	    0.000000E+00	
   -2.422724E-03	    1.178450E-02	    0.000000E+00	    0.000000E+00	    1.000000E-03	    1.000000E-03	    1.000000E+03	    0.000000E+00	    0.000000E+00	    1.276913E+04	    0.000000E+00	    1.000000E+00	    0.000000E+00	    0.000000E+00	
   -1.624046E-03	    1.191947E-02	    0.000000E+00	    0.000000E+00	    1.000000E-03	    1.000000E-03	    1.000000E+03	    0.000000E+00	    0.000000E+00	    1.248719E+04	    0.000000E+00	    1.000000E+00	    0.000000E+00	    0.000000E+00	
   -9.147101E-04	    1.199402E-02	    0.000000E+00	    0.000000E+00	    1.000000E-03	    1.000000E-03	    1.000000E+03	    0.000000E+00	    0.000000E+00	    1.233558E+04	    0.000000E+00	    1.000000E+00	    0.000000E+00	    0.000000E+00	
   -2.910617E-04	    1.202501E-02	    0.000000E+00	    0.000000E+00	    1.000000E-03	    1.000000E-03	    1.000000E+03	    0.000000E+00	    0.000000E+00	    1.227338E+04	    0.000000E+00	    1.000000E+00	    0.000000E+00	    0.000000E+00	
    2.910617E-04	    1.202501E-02	    0.000000E+00	    0.000000E+00	    1.000000E-03	    1.000000E-03	    1.000000E+03	    0.000000E+00	    0.000000E+00	    1.227338E+04	    0.000000E+00	    1.000000E+00	    0.000000E+00	    0.000000E+00	
    9.147101E-04	    1.199402E-02	    0.000000E+00	    0.000000E+00	    1.000000E-03	    1.000000E-03	    1.000000E+03	    0.000000E+00	    0.000000E+00	    1.233558E+04	    0.000000E+00	    1.000000E+00	    0.000000E+00	    0.000000E+00	
    1.624046E-03	    1.191947E-02	    0.000000E+00	    0.000000E+00	    1.000000E-03	    1.000000E-03	    1.000000E+03	    0.000000E+00	    0.000000E+00	    1.248719E+04	    0.000000E+00	    1.000000E+00	    0.000000E+00	    0.000000E+00	
    2.422724E-03	    1.178450E-02	    0.000000E+00	    0.000000E+00	    1.000000E-03	    1.000000E-03	    1.000000E+03	    0.000000E+00	    0.000000E+00	    1.276913E+04	    0.000000E+00	    1.000000E+00	    0.000000E+00	    0.000000E+00	
    3.309761E-03	    1.156901E-02	    0.000000E+00	    0.000000E+00	    1.000000E-03	    1.000000E-03	    1.000000E+03	    0.000000E+00	    0.000000E+00	    1.324015E+04	    0.000000E+00	    1.000000E+00	    0.000000E+00	    0.000000E+00	
    4.277189E-03	    1.125075E-02	    0.000000E+00	    0.000000E+00	    1.000000E-03	    1.000000E-03	    1.000000E+03	    0.000000E+00	    0.000000E+00	    1.398650E+04	    0.000000E+00	    1.000000E+00	    0.000000E+00	    0.000000E+00	
    5.307702E-03	    1.080785E-02	    0.000000E+00	    0.000000E+00	    1.000000E-03	    1.000000E-03	    1.000000E+03	    0.000000E+00	    0.000000E+00	    1.513811E+04	    0.000000E+00	    1.000000E+00	    0.000000E+00	    0.000000E+00	
    6.373132E-03	    1.022286E-02	    0.000000E+00	    0.000000E+00	    1.000000E-03	    1.000000E-03	    1.000000E+03	    0.000000E+00	    0.000000E+00	    1.689682E+04	    0.000000E+00	    1.000000E+00	    0.000000E+00	    0.000000E+00	
    7.434908E-03	    9.488112E-03	    0.000000E+00	    0.000000E+00	    1.000000E-03	    1.000000E-03	    1.000000E+03	    0.000000E+00	    0.000000E+00	    1.958664E+04	    0.000000E+00	    1.000000E+00	    0.000000E+00	    0.000000E+00	
    8.447592E-03	    8.611236E-03	    0.000000E+00	    0.000000E+00	    1.000000E-03	    1.000000E-03	    1.000000E+03	    0.000000E+00	    0.000000E+00	    2.374581E+04	    0.000000E+00	    1.000000E+00	    0.000000E+00	    0.000000E+00	
    9.365676E-03	    7.618437E-03	    0.000000E+00	    0.000000E+00	    1.000000E-03	    1.000000E-03	    1.000000E+03	    0.000000E+00	    0.000000E+00	    3.030091E+04	    0.000000E+00	    1.000000E+00	    0.000000E+00	    0.000000E+00	
    1.015216E-02	    6.553542E-03	    0.000000E+00	    0.000000E+00	    1.000000E-03	    1.000000E-03	    1.000000E+03	    0.000000E+00	    0.000000E+00	    4.090575E+04	    0.000000E+00	    1.000000E+00	    0.000000E+00	    0.000000E+00	
    1.078595E-02	    5.471869E-03	    0.000000E+00	    0.000000E+00	    1.000000E-03	    1.000000E-03	    1.000000E+03	    0.000000E+00	    0.000000E+00	    5.862651E+04	    0.000000E+00	    1.000000E+00	    0.000000E+00	    0.000000E+00	
    1.126508E-02	    4.430482E-03	    0.000000E+00	    0.000000E+00	    1.000000E-03	    1.000000E-03	    1.000000E+03	    0.000000E+00	    0.000000E+00	    8.936344E+04	    0.000000E+00	    1.000000E+00	    0.000000E+00	    0.000000E+00	
    1.160451E-02	    3.478208E-03	    0.000000E+00	    0.000000E+00	    1.000000E-03	    1.000000E-03	    1.000000E+03	    0.000000E+00	    0.000000E+00	    1.449102E+05	    0.000000E+00	    1.000000E+00	    0.000000E+00	    0.000000E+00	
    1.182998E-02	    2.648730E-03	    0.000000E+00	    0.000000E+00	    1.000000E-03	    1.000000E-03	    1.000000E+03	    0.000000E+00	    0.000000E+00	    2.497621E+05	    0.000000E+00	    1.000000E+00	    0.000000E+00	    0.000000E+00	
    1.197068E-02	    1.958259E-03	    0.000000E+00	    0.000000E+00	    1.000000E-03	    1.000000E-03	    1.000000E+03	    0.000000E+00	    0.000000E+00	    4.567648E+05	    0.000000E+00	    1.000000E+00	    0.000000E+00	    0.000000E+00	
    1.205344E-02	    1.407248E-03	    0.000000E+00	    0.000000E+00	    1.000000E-03	    1.000000E-03	    1.000000E+03	    0.000000E+00	    0.000000E+00	    8.842153E+05	    0.000000E+00	    1.000000E+00	    0.000000E+00	    0.000000E+00	
    1.209956E-02	    9.844691E-04	    0.000000E+00	    0.000000E+00	    1.000000E-03	    1.000000E-03	    1.000000E+03	    0.000000E+00	    0.000000E+00	    1.806311E+06	    0.000000E+00	    1.000000E+00	    0.000000E+00	    0.000000E+00	
    1.212408E-02	    6.717413E-04	    0.000000E+00	    0.000000E+00	    1.000000E-03	    1.000000E-03	    1.000000E+03	    0.000000E+00	    0.000000E+00	    3.878976E+06	    0.000000E+00	    1.000000E+00	    0.000000E+00	    0.000000E+00	
    1.213664E-02	    4.481479E-04	    0.000000E+00	    0.000000E+00	    1.000000E-03	    1.000000E-03	    1.000000E+03	    0.000000E+00	    0.000000E+00	    8.714137E+06	    0.000000E+00	    1.000000E+00	    0.000000E+00	    0.000000E+00	
    1.214292E-02	    2.931943E-04	    0.000000E+00	    0.000000E+00	    1.000000E-03	    1.000000E-03	    1.000000E+03	    0.000000E+00	    0.000000E+00	    2.035722E+07	    0.000000E+00	    1.000000E+00	    0.000000E+00	    0.000000E+00	
    1.214604E-02	    1.887791E-04	    0.000000E+00	    0.000000E+00	    1.000000E-03	    1.000000E-03	    1.000000E+03	    0.000000E+00	    0.000000E+00	    4.910171E+07	    0.000000E+00	    1.000000E+00	    0.000000E+00	    0.000000E+00	
    1.214760E-02	    1.201162E-04	    0.000000E+00	    0.000000E+00	    1.000000E-03	    1.000000E-03	    1.000000E+03	    0.000000E+00	    0.000000E+00	    1.212788E+08	    0.000000E+00	    1.000000E+00	    0.000000E+00	    0.000000E+00	
    1.214840E-02	    7.587059E-05	    0.000000E+00	    0.000000E+00	    1.000000E-03	    1.000000E-03	    1.000000E+03	    0.000000E+00	    0.000000E+00	    3.039697E+08	    0.000000E+00	    1.000000E+00	    0.000000E+00	    0.000000E+00	
    1.214864E-02	    6.022430E-05	    0.000000E+00	    0.000000E+00	    1.000000E-03	    1.000000E-03	    1.000000E+03	    0.000000E+00	    0.000000E+00	    0.000000E+00	    0.000000E+00	    1.000000E+00	    0.000000E+00	    0.000000E+00	
   -1.214823E-02	    6.021683E-05	    0.000000E+00	    0.000000E+00	    1.000000E-03	    1.000000E-03	    1.000000E+03	    0.000000E+00	    0.000000E+00	    0.000000E+00	    0.000000E+00	    1.000000E+00	    0.000000E+00	    0.000000E+00	
   -1.214788E-02	    7.586052E-05	    1.936757E-04	   -1.000000E+00	    1.000000E-03	    1.000000E-03	    1.000000E+03	    1.918791E-14	    5.832542E-09	    3.039697E+08	    1.425906E+05	    1.000000E+00	    5.130147E-07	    7.507948E+01	
   -1.214679E-02	    1.200973E-04	    6.206583E-04	   -1.000000E+00	    1.000000E-03	    1.000000E-03	    1.000000E+03	    1.045383E-13	    1.267828E-08	    1.212788E+08	    5.838442E+05	    1.000000E+00	    8.121804E-07	    1.415320E+02	
   -1.214476E-02	    1.887422E-04	    1.177942E-03	   -1.000000E+00	    1.000000E-03	    1.000000E-03	    1.000000E+03	    9.385194E-13	    4.608291E-08	    4.910171E+07	    8.513257E+05	    1.000000E+00	    1.276429E-06	    2.073372E+02	
   -1.214094E-02	    2.931200E-04	    1.968140E-03	   -1.000000E+00	    1.000000E-03	    1.000000E-03	    1.000000E+03	    6.433897E-12	    1.309763E-07	    2.035722E+07	    9.851811E+05	    1.000000E+00	    1.982375E-06	    2.421351E+02	
   -1.213361E-02	    4.479957E-04	    3.097737E-03	   -1.000000E+00	    1.000000E-03	    1.000000E-03	    1.000000E+03	    3.829212E-11	    3.336827E-07	    8.714137E+06	    1.044481E+06	    1.000000E+00	    3.029932E-06	    2.603889E+02	
   -1.211955E-02	    6.714295E-04	    4.672081E-03	   -1.000000E+00	    1.000000E-03	    1.000000E-03	    1.000000E+03	    2.037250E-10	    7.902445E-07	    3.878976E+06	    1.057244E+06	    1.000000E+00	    4.541366E-06	    2.690264E+02	
   -1.209293E-02	    9.838410E-04	    6.827179E-03	   -1.000000E+00	    1.000000E-03	    1.000000E-03	    1.000000E+03	    9.888407E-10	    1.786154E-06	    1.806311E+06	    1.050747E+06	    1.000000E+00	    6.655010E-06	    2.752201E+02	
   -1.204401E-02	    1.406019E-03	    9.680970E-03	   -1.000000E+00	    1.000001E-03	    1.000000E-03	    1.000000E+03	    4.377132E-09	    3.870327E-06	    8.842153E+05	    1.033515E+06	    1.000000E+00	    9.511874E-06	    2.812142E+02	
   -1.195765E-02	    1.955950E-03	    1.334756E-02	   -1.000000E+00	    1.000004E-03	    1.000000E-03	    1.000000E+03	    1.767806E-08	    8.074714E-06	    4.567648E+05	    1.013914E+06	    1.000000E+00	    1.323424E-05	    2.892971E+02	
   -1.181256E-02	    2.644593E-03	    1.788890E-02	   -1.000000E+00	    1.000014E-03	    1.000000E-03	    1.000000E+03	    6.477319E-08	    1.617789E-05	    2.497621E+05	    9.944802E+05	    1.000000E+00	    1.789713E-05	    3.000920E+02	
   -1.158209E-02	    3.471175E-03	    2.323844E-02	   -1.000000E+00	    1.000047E-03	    1.000000E-03	    1.000000E+03	    2.117141E-07	    3.067953E-05	    1.449102E+05	    9.714233E+05	    1.000000E+00	    2.349639E-05	    3.114625E+02	
   -1.123737E-02	    4.419185E-03	    2.938744E-02	   -1.000000E+00	    1.000137E-03	    1.000000E-03	    1.000000E+03	    6.212285E-07	    5.551512E-05	    8.936344E+04	    9.537156E+05	    1.000000E+00	    2.992139E-05	    3.267237E+02	
   -1.075321E-02	    5.454763E-03	    3.600099E-02	   -1.000000E+00	    1.000352E-03	    1.000000E-03	    1.000000E+03	    1.599338E-06	    9.376362E-05	    5.862651E+04	    9.302600E+05	    1.000000E+00	    3.694375E-05	    3.412136E+02	
   -1.011527E-02	    6.529136E-03	    4.298414E-02	   -1.000000E+00	    1.000803E-03	    1.000000E-03	    1.000000E+03	    3.651447E-06	    1.493652E-04	    4.090575E+04	    9.091722E+05	    1.000000E+00	    4.423348E-05	    3.586803E+02	
   -9.326135E-03	    7.585587E-03	    4.982789E-02	   -1.000000E+00	    1.001599E-03	    1.000000E-03	    1.000000E+03	    7.266587E-06	    2.201842E-04	    3.030091E+04	    8.810528E+05	    1.000000E+00	    5.140587E-05	    3.737807E+02	
   -8.407302E-03	    8.569391E-03	    5.608134E-02	   -1.000000E+00	    1.002791E-03	    1.000000E-03	    1.000000E+03	    1.268694E-05	    3.012615E-04	    2.374581E+04	    8.459944E+05	    1.000000E+00	    5.808887E-05	    3.853729E+02	
   -7.395856E-03	    9.437422E-03	    6.170286E-02	   -1.000000E+00	    1.004388E-03	    1.000000E-03	    1.000000E+03	    1.994328E-05	    3.906218E-04	    1.958664E+04	    8.145894E+05	    1.000000E+00	    6.398848E-05	    3.978842E+02	
   -6.337080E-03	    1.016411E-02	    6.649600E-02	   -1.000000E+00	    1.006241E-03	    1.000000E-03	    1.000000E+03	    2.836764E-05	    4.793230E-04	    1.689682E+04	    7.884068E+05	    1.000000E+00	    6.892962E-05	    4.093310E+02	
   -5.275969E-03	    1.074227E-02	    7.036936E-02	   -1.000000E+00	    1.008123E-03	    1.000000E-03	    1.000000E+03	    3.692454E-05	    5.589677E-04	    1.513811E+04	    7.679923E+05	    1.000000E+00	    7.286231E-05	    4.186469E+02	
   -4.250575E-03	    1.117974E-02	    7.333286E-02	   -1.000000E+00	    1.009820E-03	    1.000000E-03	    1.000000E+03	    4.463799E-05	    6.243290E-04	    1.398650E+04	    7.528929E+05	    1.000000E+00	    7.583887E-05	    4.255969E+02	
   -3.288589E-03	    1.149396E-02	    7.547608E-02	   -1.000000E+00	    1.011196E-03	    1.000000E-03	    1.000000E+03	    5.089038E-05	    6.737962E-04	    1.324015E+04	    7.422464E+05	    1.000000E+00	    7.797729E-05	    4.304415E+02	
   -2.406939E-03	    1.170666E-02	    7.693251E-02	   -1.000000E+00	    1.012205E-03	    1.000000E-03	    1.000000E+03	    5.547706E-05	    7.083936E-04	    1.276913E+04	    7.351336E+05	    1.000000E+00	    7.942503E-05	    4.336199E+02	
   -1.613344E-03	    1.183985E-02	    7.784618E-02	   -1.000000E+00	    1.012870E-03	    1.000000E-03	    1.000000E+03	    5.849865E-05	    7.304839E-04	    1.248719E+04	    7.307132E+05	    1.000000E+00	    8.033169E-05	    4.355576E+02	
   -9.086451E-04	    1.191341E-02	    7.835063E-02	   -1.000000E+00	    1.013248E-03	    1.000000E-03	    1.000000E+03	    6.021651E-05	    7.428057E-04	    1.233558E+04	    7.282732E+05	    1.000000E+00	    8.083244E-05	    4.366017E+02	
   -2.891269E-04	    1.194400E-02	    7.855891E-02	   -1.000000E+00	    1.013406E-03	    1.000000E-03	    1.000000E+03	    6.093863E-05	    7.479231E-04	    1.227338E+04	    7.272380E+05	    1.000000E+00	    8.104063E-05	    4.370137E+02	
    2.891269E-04	    1.194400E-02	    7.855891E-02	   -1.000000E+00	    1.013406E-03	    1.000000E-03	    1.000000E+03	    6.093863E-05	    7.479231E-04	    1.227338E+04	    7.272380E+05	    1.000000E+00	    8.104063E-05	    4.370137E+02	
    9.086451E-04	    1.191341E-02	    7.835063E-02	   -1.000000E+00	    1.013248E-03	    1.000000E-03	    1.000000E+03	    6.021651E-05	    7.428057E-04	    1.233558E+04	    7.282732E+05	    1.000000E+00	    8.083244E-05	    4.366017E+02	
    1.613344E-03	    1.183985E-02	    7.784618E-02	   -1.000000E+00	    1.012870E-03	    1.000000E-03	    1.000000E+03	    5.849865E-05	    7.304839E-04	    1.248719E+04	    7.307132E+05	    1.000000E+00	    8.033169E-05	    4.355576E+02	
    2.406939E-03	    1.170666E-02	    7.693251E-02	   -1.000000E+00	    1.012205E-03	    1.000000E-03	    1.000000E+03	    5.547706E-05	    7.083936E-04	    1.276913E+04	    7.351336E+05	    1.000000E+00	    7.942503E-05	    4.336199E+02	
    3.288589E-03	    1.149396E-02	    7.547608E-02	   -1.000000E+00	    1.011196E-03	    1.000000E-03	    1.000000E+03	    5.089038E-05	    6.737962E-04	    1.324015E+04	    7.422464E+05	    1.000000E+00	    7.797729E-05	    4.304415E+02	
    4.250575E-03	    1.117974E-02	    7.333286E-02	   -1.000000E+00	    1.009820E-03	    1.000000E-03	    1.000000E+03	    4.463799E-05	    6.243290E-04	    1.398650E+04	    7.528929E+05	    1.000000E+00	    7.583887E-05	    4.255969E+02	
    5.275969E-03	    1.074227E-02	    7.036936E-02	   -1.000000E+00	    1.008123E-03	    1.000000E-03	    1.000000E+03	    3.692454E-05	    5.589677E-04	    1.513811E+04	    7.679923E+05	    1.000000E+00	    7.286231E-05	    4.186469E+02	
    6.337080E-03	    1.016411E-02	    6.649600E-02	   -1.000000E+00	    1.006241E-03	    1.000000E-03	    1.000000E+03	    2.836764E-05	    4.793230E-04	    1.689682E+04	    7.884068E+05	    1.000000E+00	    6.892962E-05	    4.093310E+02	
    7.395856E-03	    9.437422E-03	    6.170286E-02	   -1.000000E+00	    1.004388E-03	    1.000000E-03	    1.000000E+03	    1.994328E-05	    3.906218E-04	    1.958664E+04	    8.145894E+05	    1.000000E+00	    6.398848E-05	    3.978842E+02	
    8.407302E-03	    8.569391E-03	    5.608134E-02	   -1.000000E+00	    1.002791E-03	    1.000000E-03	    1.000000E+03	    1.268694E-05	    3.012615E-04	    2.374581E+04	    8.459944E+05	    1.000000E+00	    5.808887E-05	    3.853729E+02	
    9.326135E-03	    7.585587E-03	    4.982789E-02	   -1.000000E+00	    1.001599E-03	    1.000000E-03	    1.000000E+03	    7.266587E-06	    2.201842E-04	    3.030091E+04	    8.810528E+05	    1.000000E+00	    5.140587E-05	    3.737807E+02	
    1.011527E-02	    6.529136E-03	    4.298414E-02	   -1.000000E+00	    1.000803E-03	    1.000000E-03	    1.000000E+03	    3.651447E-06	    1.493652E-04	    4.090575E+04	    9.091722E+05	    1.000000E+00	    4.423348E-05	    3.586803E+02	
    1.075321E-02	    5.454763E-03	    3.600099E-02	   -1.000000E+00	    1.000352E-03	    1.000000E-03	    1.000000E+03	    1.599338E-06	    9.376362E-05	    5.862651E+04	    9.302600E+05	    1.000000E+00	    3.694375E-05	    3.412136E+02	
    1.123737E-02	    4.419185E-03	    2.938744E-02	   -1.000000E+00	    1.000137E-03	    1.000000E-03	    1.000000E+03	    6.212285E-07	    5.551512E-05	    8.936344E+04	    9.537156E+05	    1.000000E+00	    2.992139E-05	    3.267237E+02	
    1.158209E-02	    3.471175E-03	    2.323844E-02	   -1.000000E+00	    1.000047E-03	    1.000000E-03	    1.000000E+03	    2.117141E-07	    3.067953E-05	    1.449102E+05	    9.714233E+05	    1.000000E+00	    2.349639E-05	    3.114625E+02	
    1.181256E-02	    2.644593E-03	    1.788890E-02	   -1.000000E+00	    1.000014E-03	    1.000000E-03	    1.000000E+03	    6.477319E-08	    1.617789E-05	    2.497621E+05	    9.944802E+05	    1.000000E+00	    1.789713E-05	    3.000920E+02	
    1.195765E-02	    1.955950E-03	    1.334756E-02	   -1.000000E+00	    1.000004E-03	    1.000000E-03	    1.000000E+03	    1.767806E-08	    8.074714E-06	    4.567648E+05	    1.013914E+06	    1.000000E+00	    1.323424E-05	    2.892971E+02	
    1.204401E-02	    1.406019E-03	    9.680970E-03	   -1.000000E+00	    1.000001E-03	    1.000000E-03	    1.000000E+03	    4.377132E-09	    3.870327E-06	    8.842153E+05	    1.033515E+06	    1.000000E+00	    9.511874E-06	    2.812142E+02	
    1.209293E-02	    9.838410E-04	    6.827179E-03	   -1.000000E+00	    1.000000E-03	    1.000000E-03	    1.000000E+03	    9.888407E-10	    1.786154E-06	    1.806311E+06	    1.050747E+06	    1.000000E+00	    6.655010E-06	    2.752201E+02	
    1.211955E-02	    6.714295E-04	    4.672081E-03	   -1.000000E+00	    1.000000E-03	    1.000000E-03	    1.000000E+03	    2.037250E-10	    7.902445E-07	    3.878976E+06	    1.057244E+06	    1.000000E+00	    4.541366E-06	    2.690264E+02	
    1.213361E-02	    4.479957E-04	    3.097737E-03	   -1.000000E+00	    1.000000E-03	    1.000000E-03	    1.000000E+03	    3.829212E-11	    3.336827E-07	    8.714137E+06	    1.044481E+06	    1.000000E+00	    3.029932E-06	    2.603889E+02	
    1.214094E-02	    2.931200E-04	    1.968140E-03	   -1.000000E+00	    1.000000E-03	    1.000000E-03	    1.000000E+03	    6.433897E-12	    1.309763E-07	    2.035722E+07	    9.851811E+05	    1.000000E+00	    1.982375E-06	    2.421351E+02	
    1.214476E-02	    1.887422E-04	    1.177942E-03	   -1.000000E+00	    1.000000E-03	    1.000000E-03	    1.000000E+03	    9.385194E-13	    4.608291E-08	    4.910171E+07	    8.513257E+05	    1.000000E+00	    1.276429E-06	    2.073372E+02	
    1.214679E-02	    1.200973E-04	    6.206583E-04	   -1.000000E+00	    1.000000E-03	    1.000000E-03	    1.000000E+03	    1.045383E-13	    1.267828E-08	    1.212788E+08	    5.838442E+05	    1.000000E+00	    8.121804E-07	    1.415320E+02	
    1.214788E-02	    7.586052E-05	    1.936757E-04	   -1.000000E+00	    1.000000E-03	    1.000000E-03	    1.000000E+03	    1.918791E-14	    5.832542E-09	    3.039697E+08	    1.425906E+05	    1.000000E+00	    5.130147E-07	    7.507948E+01	
    1.214823E-02	    6.021683E-05	    0.000000E+00	    0.000000E+00	    1.000000E-03	    1.000000E-03	    1.000000E+03	    0.000000E+00	    0.000000E+00	    3.267915E+05	    0.000000E+00	    1.000000E+00	    0.000000E+00	    0.000000E+00	
   -1.214729E-02	    6.018900E-05	    0.000000E+00	    0.000000E+00	    1.000000E-03	    1.000000E-03	    1.000000E+03	    0.000000E+00	    0.000000E+00	    3.267915E+05	    0.000000E+00	    1.000000E+00	    0.000000E+00	    0.000000E+00	
   -1.214670E-02	    7.582392E-05	    6.416746E-04	   -1.000000E+00	    1.000000E-03	    1.000000E-03	    1.000000E+03	    3.327492E-10	    1.087396E-07	    3.267915E+05	    1.437581E+05	    1.000000E+00	    1.700203E-06	    1.154692E+00	
   -1.214491E-02	    1.200325E-04	    2.056457E-03	   -1.000000E+00	    1.000000E-03	    1.000000E-03	    1.000000E+03	    1.724397E-13	    3.041879E-09	    1.764025E+07	    5.840659E+05	    1.000000E+00	    2.691603E-06	    1.007162E-07	
   -1.214181E-02	    1.886237E-04	    3.902652E-03	   -1.000000E+00	    1.000000E-03	    1.000000E-03	    1.000000E+03	    2.547822E-12	    1.820332E-08	    7.144658E+06	    8.510604E+05	    1.000000E+00	    4.229957E-06	    2.168351E-06	
   -1.213636E-02	    2.928967E-04	    6.519788E-03	   -1.000000E+00	    1.000000E-03	    1.000000E-03	    1.000000E+03	    3.086137E-11	    9.142856E-08	    2.962557E+06	    9.845472E+05	    1.000000E+00	    6.568948E-06	    3.038447E-05	
   -1.212662E-02	    4.475651E-04	    1.025958E-02	   -1.000000E+00	    1.000000E-03	    1.000000E-03	    1.000000E+03	    3.066566E-10	    3.889723E-07	    1.268430E+06	    1.043428E+06	    1.000000E+00	    1.003921E-05	    3.199740E-04	
   -1.210908E-02	    6.705914E-04	    1.546871E-02	   -1.000000E+00	    1.000001E-03	    1.000000E-03	    1.000000E+03	    2.555823E-09	    1.443527E-06	    5.647991E+05	    1.055601E+06	    1.000000E+00	    1.504495E-05	    2.697930E-03	
   -1.207763E-02	    9.822180E-04	    2.259347E-02	   -1.000000E+00	    1.000004E-03	    1.000000E-03	    1.000000E+03	    1.857974E-08	    4.888715E-06	    2.631208E+05	    1.048265E+06	    1.000000E+00	    2.204275E-05	    1.947649E-02	
   -1.202224E-02	    1.402938E-03	    3.201688E-02	   -1.000000E+00	    1.000026E-03	    1.000000E-03	    1.000000E+03	    1.169676E-07	    1.507376E-05	    1.288712E+05	    1.029596E+06	    1.000000E+00	    3.149672E-05	    1.204294E-01	
   -1.192760E-02	    1.950285E-03	    4.410408E-02	   -1.000000E+00	    1.000141E-03	    1.000000E-03	    1.000000E+03	    6.394403E-07	    4.259207E-05	    6.660837E+04	    1.006614E+06	    1.000000E+00	    4.380714E-05	    6.436696E-01	
   -1.177247E-02	    2.634602E-03	    5.903715E-02	   -1.000000E+00	    1.000665E-03	    1.000000E-03	    1.000000E+03	    3.023951E-06	    1.101554E-04	    3.642763E+04	    9.768632E+05	    1.000000E+00	    5.921575E-05	    2.953987E+00	
   -1.153055E-02	    3.454397E-03	    7.654393E-02	   -1.000000E+00	    1.002665E-03	    1.000000E-03	    1.000000E+03	    1.211256E-05	    2.557408E-04	    2.111368E+04	    9.251763E+05	    1.000000E+00	    7.770067E-05	    1.120626E+01	
   -1.117378E-02	    4.392487E-03	    9.646042E-02	   -1.000000E+00	    1.009196E-03	    1.000000E-03	    1.000000E+03	    4.180155E-05	    5.429344E-04	    1.298838E+04	    8.501545E+05	    1.000000E+00	    9.888753E-05	    3.553778E+01	
   -1.067819E-02	    5.414629E-03	    1.173605E-01	   -1.000000E+00	    1.026349E-03	    1.000000E-03	    1.000000E+03	    1.197675E-04	    1.019161E-03	    8.509495E+03	    7.518770E+05	    1.000000E+00	    1.220149E-04	    9.005044E+01	
   -1.003092E-02	    6.472204E-03	    1.383707E-01	   -1.000000E+00	    1.063005E-03	    1.000000E-03	    1.000000E+03	    2.863850E-04	    1.707983E-03	    5.963938E+03	    6.554892E+05	    1.000000E+00	    1.459906E-04	    1.877223E+02	
   -9.235913E-03	    7.509312E-03	    1.573780E-01	   -1.000000E+00	    1.122932E-03	    1.000000E-03	    1.000000E+03	    5.587821E-04	    2.504273E-03	    4.481663E+03	    5.720719E+05	    1.000000E+00	    1.695485E-04	    3.196636E+02	
   -8.315535E-03	    8.472593E-03	    1.730040E-01	   -1.000000E+00	    1.201599E-03	    1.000000E-03	    1.000000E+03	    9.163586E-04	    3.293370E-03	    3.593975E+03	    5.044310E+05	    1.000000E+00	    1.914705E-04	    4.622396E+02	
   -7.307050E-03	    9.320514E-03	    1.855159E-01	   -1.000000E+00	    1.292581E-03	    1.000000E-03	    1.000000E+03	    1.329914E-03	    4.048999E-03	    3.044556E+03	    4.495758E+05	    1.000000E+00	    2.108000E-04	    5.978973E+02	
   -6.255204E-03	    1.002892E-02	    1.950936E-01	   -1.000000E+00	    1.383912E-03	    1.000000E-03	    1.000000E+03	    1.745056E-03	    4.703075E-03	    2.695085E+03	    4.072174E+05	    1.000000E+00	    2.269729E-04	    7.106172E+02	
   -5.203978E-03	    1.059161E-02	    2.021814E-01	   -1.000000E+00	    1.465669E-03	    1.000000E-03	    1.000000E+03	    2.116676E-03	    5.224793E-03	    2.468395E+03	    3.759751E+05	    1.000000E+00	    2.398345E-04	    7.958176E+02	