Title="Fields"
Variables="X""Y""Velocity""Phi""Effective Viscosity""Dynamic Viscosity""Density""Eddy Viscosity""K""Omega""S"
Zone I=82 J=82 F=POINT
   -1.055100E-02	    4.531118E-05	    0.000000E+00	   -1.000000E+00	    1.600000E-03	    1.600000E-03	    8.010000E+02	    0.000000E+00	    0.000000E+00	    0.000000E+00	    0.000000E+00	
   -1.055503E-02	    5.237613E-05	    0.000000E+00	   -1.000000E+00	    1.600000E-03	    1.600000E-03	    8.010000E+02	    0.000000E+00	    0.000000E+00	    0.000000E+00	    0.000000E+00	
   -1.056504E-02	    6.995325E-05	    0.000000E+00	   -1.000000E+00	    1.600000E-03	    1.600000E-03	    8.010000E+02	    0.000000E+00	    0.000000E+00	    0.000000E+00	    0.000000E+00	
   -1.057826E-02	    9.328967E-05	    0.000000E+00	   -1.000000E+00	    1.600000E-03	    1.600000E-03	    8.010000E+02	    0.000000E+00	    0.000000E+00	    0.000000E+00	    0.000000E+00	
   -1.059560E-02	    1.240913E-04	    0.000000E+00	   -1.000000E+00	    1.600000E-03	    1.600000E-03	    8.010000E+02	    0.000000E+00	    0.000000E+00	    0.000000E+00	    0.000000E+00	
   -1.061816E-02	    1.644719E-04	    0.000000E+00	   -1.000000E+00	    1.600000E-03	    1.600000E-03	    8.010000E+02	    0.000000E+00	    0.000000E+00	    0.000000E+00	    0.000000E+00	
   -1.064721E-02	    2.170108E-04	    0.000000E+00	   -1.000000E+00	    1.600000E-03	    1.600000E-03	    8.010000E+02	    0.000000E+00	    0.000000E+00	    0.000000E+00	    0.000000E+00	
   -1.068420E-02	    2.848073E-04	    0.000000E+00	   -1.000000E+00	    1.600000E-03	    1.600000E-03	    8.010000E+02	    0.000000E+00	    0.000000E+00	    0.000000E+00	    0.000000E+00	
   -1.073071E-02	    3.715262E-04	    0.000000E+00	   -1.000000E+00	    1.600000E-03	    1.600000E-03	    8.010000E+02	    0.000000E+00	    0.000000E+00	    0.000000E+00	    0.000000E+00	
   -1.078835E-02	    4.814321E-04	    0.000000E+00	   -1.000000E+00	    1.600000E-03	    1.600000E-03	    8.010000E+02	    0.000000E+00	    0.000000E+00	    0.000000E+00	    0.000000E+00	
   -1.085872E-02	    6.194069E-04	    0.000000E+00	   -1.000000E+00	    1.600000E-03	    1.600000E-03	    8.010000E+02	    0.000000E+00	    0.000000E+00	    0.000000E+00	    0.000000E+00	
   -1.094314E-02	    7.909479E-04	    0.000000E+00	   -1.000000E+00	    1.600000E-03	    1.600000E-03	    8.010000E+02	    0.000000E+00	    0.000000E+00	    0.000000E+00	    0.000000E+00	
   -1.104254E-02	    1.002138E-03	    0.000000E+00	   -1.000000E+00	    1.600000E-03	    1.600000E-03	    8.010000E+02	    0.000000E+00	    0.000000E+00	    0.000000E+00	    0.000000E+00	
   -1.115710E-02	    1.259578E-03	    0.000000E+00	   -1.000000E+00	    1.600000E-03	    1.600000E-03	    8.010000E+02	    0.000000E+00	    0.000000E+00	    0.000000E+00	    0.000000E+00	
   -1.128599E-02	    1.570276E-03	    0.000000E+00	   -1.000000E+00	    1.600000E-03	    1.600000E-03	    8.010000E+02	    0.000000E+00	    0.000000E+00	    0.000000E+00	    0.000000E+00	
   -1.142700E-02	    1.941456E-03	    0.000000E+00	   -1.000000E+00	    1.600000E-03	    1.600000E-03	    8.010000E+02	    0.000000E+00	    0.000000E+00	    0.000000E+00	    0.000000E+00	
   -1.157615E-02	    2.380288E-03	    0.000000E+00	   -1.000000E+00	    1.600000E-03	    1.600000E-03	    8.010000E+02	    0.000000E+00	    0.000000E+00	    0.000000E+00	    0.000000E+00	
   -1.172737E-02	    2.893491E-03	    0.000000E+00	   -1.000000E+00	    1.600000E-03	    1.600000E-03	    8.010000E+02	    0.000000E+00	    0.000000E+00	    0.000000E+00	    0.000000E+00	
   -1.187218E-02	    3.486793E-03	    0.000000E+00	   -1.000000E+00	    1.600000E-03	    1.600000E-03	    8.010000E+02	    0.000000E+00	    0.000000E+00	    0.000000E+00	    0.000000E+00	
   -1.199958E-02	    4.164254E-03	    0.000000E+00	   -1.000000E+00	    1.600000E-03	    1.600000E-03	    8.010000E+02	    0.000000E+00	    0.000000E+00	    0.000000E+00	    0.000000E+00	
   -1.209614E-02	    4.927439E-03	    0.000000E+00	   -1.000000E+00	    1.600000E-03	    1.600000E-03	    8.010000E+02	    0.000000E+00	    0.000000E+00	    0.000000E+00	    0.000000E+00	
   -1.214640E-02	    5.774537E-03	    0.000000E+00	   -1.000000E+00	    1.600000E-03	    1.600000E-03	    8.010000E+02	    0.000000E+00	    0.000000E+00	    0.000000E+00	    0.000000E+00	
   -1.213369E-02	    6.699516E-03	    0.000000E+00	   -1.000000E+00	    1.600000E-03	    1.600000E-03	    8.010000E+02	    0.000000E+00	    0.000000E+00	    0.000000E+00	    0.000000E+00	
   -1.204134E-02	    7.691497E-03	    0.000000E+00	   -1.000000E+00	    1.600000E-03	    1.600000E-03	    8.010000E+02	    0.000000E+00	    0.000000E+00	    0.000000E+00	    0.000000E+00	
   -1.185426E-02	    8.734546E-03	    0.000000E+00	   -1.000000E+00	    1.600000E-03	    1.600000E-03	    8.010000E+02	    0.000000E+00	    0.000000E+00	    0.000000E+00	    0.000000E+00	
   -1.156073E-02	    9.808071E-03	    0.000000E+00	   -1.000000E+00	    1.600000E-03	    1.600000E-03	    8.010000E+02	    0.000000E+00	    0.000000E+00	    0.000000E+00	    0.000000E+00	
   -1.115400E-02	    1.088791E-02	    0.000000E+00	   -1.000000E+00	    1.600000E-03	    1.600000E-03	    8.010000E+02	    0.000000E+00	    0.000000E+00	    0.000000E+00	    0.000000E+00	
   -1.063354E-02	    1.194811E-02	    0.000000E+00	   -1.000000E+00	    1.600000E-03	    1.600000E-03	    8.010000E+02	    0.000000E+00	    0.000000E+00	    0.000000E+00	    0.000000E+00	
   -1.000553E-02	    1.296304E-02	    0.000000E+00	   -1.000000E+00	    1.600000E-03	    1.600000E-03	    8.010000E+02	    0.000000E+00	    0.000000E+00	    0.000000E+00	    0.000000E+00	
   -9.282453E-03	    1.390971E-02	    0.000000E+00	   -1.000000E+00	    1.600000E-03	    1.600000E-03	    8.010000E+02	    0.000000E+00	    0.000000E+00	    0.000000E+00	    0.000000E+00	
   -8.481853E-03	    1.476963E-02	    0.000000E+00	   -1.000000E+00	    1.600000E-03	    1.600000E-03	    8.010000E+02	    0.000000E+00	    0.000000E+00	    0.000000E+00	    0.000000E+00	
   -7.624546E-03	    1.553001E-02	    0.000000E+00	   -1.000000E+00	    1.600000E-03	    1.600000E-03	    8.010000E+02	    0.000000E+00	    0.000000E+00	    0.000000E+00	    0.000000E+00	
   -6.732551E-03	    1.618427E-02	    0.000000E+00	   -1.000000E+00	    1.600000E-03	    1.600000E-03	    8.010000E+02	    0.000000E+00	    0.000000E+00	    0.000000E+00	    0.000000E+00	
   -5.827197E-03	    1.673160E-02	    0.000000E+00	   -1.000000E+00	    1.600000E-03	    1.600000E-03	    8.010000E+02	    0.000000E+00	    0.000000E+00	    0.000000E+00	    0.000000E+00	
   -4.927632E-03	    1.717606E-02	    0.000000E+00	   -1.000000E+00	    1.600000E-03	    1.600000E-03	    8.010000E+02	    0.000000E+00	    0.000000E+00	    0.000000E+00	    0.000000E+00	
   -4.049875E-03	    1.752534E-02	    0.000000E+00	   -1.000000E+00	    1.600000E-03	    1.600000E-03	    8.010000E+02	    0.000000E+00	    0.000000E+00	    0.000000E+00	    0.000000E+00	
   -3.206403E-03	    1.778944E-02	    0.000000E+00	   -1.000000E+00	    1.600000E-03	    1.600000E-03	    8.010000E+02	    0.000000E+00	    0.000000E+00	    0.000000E+00	    0.000000E+00	
   -2.406177E-03	    1.797952E-02	    0.000000E+00	   -1.000000E+00	    1.600000E-03	    1.600000E-03	    8.010000E+02	    0.000000E+00	    0.000000E+00	    0.000000E+00	    0.000000E+00	
   -1.654969E-03	    1.810692E-02	    0.000000E+00	   -1.000000E+00	    1.600000E-03	    1.600000E-03	    8.010000E+02	    0.000000E+00	    0.000000E+00	    0.000000E+00	    0.000000E+00	
   -9.558574E-04	    1.818251E-02	    0.000000E+00	   -1.000000E+00	    1.600000E-03	    1.600000E-03	    8.010000E+02	    0.000000E+00	    0.000000E+00	    0.000000E+00	    0.000000E+00	
   -3.097731E-04	    1.821621E-02	    0.000000E+00	   -1.000000E+00	    1.600000E-03	    1.600000E-03	    8.010000E+02	    0.000000E+00	    0.000000E+00	    0.000000E+00	    0.000000E+00	
    3.097731E-04	    1.821621E-02	    0.000000E+00	   -1.000000E+00	    1.600000E-03	    1.600000E-03	    8.010000E+02	    0.000000E+00	    0.000000E+00	    0.000000E+00	    0.000000E+00	
    9.558574E-04	    1.818251E-02	    0.000000E+00	   -1.000000E+00	    1.600000E-03	    1.600000E-03	    8.010000E+02	    0.000000E+00	    0.000000E+00	    0.000000E+00	    0.000000E+00	
    1.654969E-03	    1.810692E-02	    0.000000E+00	   -1.000000E+00	    1.600000E-03	    1.600000E-03	    8.010000E+02	    0.000000E+00	    0.000000E+00	    0.000000E+00	    0.000000E+00	
    2.406177E-03	    1.797952E-02	    0.000000E+00	   -1.000000E+00	    1.600000E-03	    1.600000E-03	    8.010000E+02	    0.000000E+00	    0.000000E+00	    0.000000E+00	    0.000000E+00	
    3.206403E-03	    1.778944E-02	    0.000000E+00	   -1.000000E+00	    1.600000E-03	    1.600000E-03	    8.010000E+02	    0.000000E+00	    0.000000E+00	    0.000000E+00	    0.000000E+00	
    4.049875E-03	    1.752534E-02	    0.000000E+00	   -1.000000E+00	    1.600000E-03	    1.600000E-03	    8.010000E+02	    0.000000E+00	    0.000000E+00	    0.000000E+00	    0.000000E+00	
    4.927632E-03	    1.717606E-02	    0.000000E+00	   -1.000000E+00	    1.600000E-03	    1.600000E-03	    8.010000E+02	    0.000000E+00	    0.000000E+00	    0.000000E+00	    0.000000E+00	
    5.827197E-03	    1.673160E-02	    0.000000E+00	   -1.000000E+00	    1.600000E-03	    1.600000E-03	    8.010000E+02	    0.000000E+00	    0.000000E+00	    0.000000E+00	    0.000000E+00	
    6.732551E-03	    1.618427E-02	    0.000000E+00	   -1.000000E+00	    1.600000E-03	    1.600000E-03	    8.010000E+02	    0.000000E+00	    0.000000E+00	    0.000000E+00	    0.000000E+00	
    7.624546E-03	    1.553001E-02	    0.000000E+00	   -1.000000E+00	    1.600000E-03	    1.600000E-03	    8.010000E+02	    0.000000E+00	    0.000000E+00	    0.000000E+00	    0.000000E+00	
    8.481853E-03	    1.476963E-02	    0.000000E+00	   -1.000000E+00	    1.600000E-03	    1.600000E-03	    8.010000E+02	    0.000000E+00	    0.000000E+00	    0.000000E+00	    0.000000E+00	
    9.282453E-03	    1.390971E-02	    0.000000E+00	   -1.000000E+00	    1.600000E-03	    1.600000E-03	    8.010000E+02	    0.000000E+00	    0.000000E+00	    0.000000E+00	    0.000000E+00	
    1.000553E-02	    1.296304E-02	    0.000000E+00	   -1.000000E+00	    1.600000E-03	    1.600000E-03	    8.010000E+02	    0.000000E+00	    0.000000E+00	    0.000000E+00	    0.000000E+00	
    1.063354E-02	    1.194811E-02	    0.000000E+00	   -1.000000E+00	    1.600000E-03	    1.600000E-03	    8.010000E+02	    0.000000E+00	    0.000000E+00	    0.000000E+00	    0.000000E+00	
    1.115400E-02	    1.088791E-02	    0.000000E+00	   -1.000000E+00	    1.600000E-03	    1.600000E-03	    8.010000E+02	    0.000000E+00	    0.000000E+00	    0.000000E+00	    0.000000E+00	
    1.156073E-02	    9.808071E-03	    0.000000E+00	   -1.000000E+00	    1.600000E-03	    1.600000E-03	    8.010000E+02	    0.000000E+00	    0.000000E+00	    0.000000E+00	    0.000000E+00	
    1.185426E-02	    8.734546E-03	    0.000000E+00	   -1.000000E+00	    1.600000E-03	    1.600000E-03	    8.010000E+02	    0.000000E+00	    0.000000E+00	    0.000000E+00	    0.000000E+00	
    1.204134E-02	    7.691497E-03	    0.000000E+00	   -1.000000E+00	    1.600000E-03	    1.600000E-03	    8.010000E+02	    0.000000E+00	    0.000000E+00	    0.000000E+00	    0.000000E+00	
    1.213369E-02	    6.699516E-03	    0.000000E+00	   -1.000000E+00	    1.600000E-03	    1.600000E-03	    8.010000E+02	    0.000000E+00	    0.000000E+00	    0.000000E+00	    0.000000E+00	
    1.214640E-02	    5.774537E-03	    0.000000E+00	   -1.000000E+00	    1.600000E-03	    1.600000E-03	    8.010000E+02	    0.000000E+00	    0.000000E+00	    0.000000E+00	    0.000000E+00	
    1.209614E-02	    4.927439E-03	    0.000000E+00	   -1.000000E+00	    1.600000E-03	    1.600000E-03	    8.010000E+02	    0.000000E+00	    0.000000E+00	    0.000000E+00	    0.000000E+00	
    1.199958E-02	    4.164254E-03	    0.000000E+00	   -1.000000E+00	    1.600000E-03	    1.600000E-03	    8.010000E+02	    0.000000E+00	    0.000000E+00	    0.000000E+00	    0.000000E+00	
    1.187218E-02	    3.486793E-03	    0.000000E+00	   -1.000000E+00	    1.600000E-03	    1.600000E-03	    8.010000E+02	    0.000000E+00	    0.000000E+00	    0.000000E+00	    0.000000E+00	
    1.172737E-02	    2.893491E-03	    0.000000E+00	   -1.000000E+00	    1.600000E-03	    1.600000E-03	    8.010000E+02	    0.000000E+00	    0.000000E+00	    0.000000E+00	    0.000000E+00	
    1.157615E-02	    2.380288E-03	    0.000000E+00	   -1.000000E+00	    1.600000E-03	    1.600000E-03	    8.010000E+02	    0.000000E+00	    0.000000E+00	    0.000000E+00	    0.000000E+00	
    1.142700E-02	    1.941456E-03	    0.000000E+00	   -1.000000E+00	    1.600000E-03	    1.600000E-03	    8.010000E+02	    0.000000E+00	    0.000000E+00	    0.000000E+00	    0.000000E+00	
    1.128599E-02	    1.570276E-03	    0.000000E+00	   -1.000000E+00	    1.600000E-03	    1.600000E-03	    8.010000E+02	    0.000000E+00	    0.000000E+00	    0.000000E+00	    0.000000E+00	
    1.115710E-02	    1.259578E-03	    0.000000E+00	   -1.000000E+00	    1.600000E-03	    1.600000E-03	    8.010000E+02	    0.000000E+00	    0.000000E+00	    0.000000E+00	    0.000000E+00	
    1.104254E-02	    1.002138E-03	    0.000000E+00	   -1.000000E+00	    1.600000E-03	    1.600000E-03	    8.010000E+02	    0.000000E+00	    0.000000E+00	    0.000000E+00	    0.000000E+00	
    1.094314E-02	    7.909479E-04	    0.000000E+00	   -1.000000E+00	    1.600000E-03	    1.600000E-03	    8.010000E+02	    0.000000E+00	    0.000000E+00	    0.000000E+00	    0.000000E+00	
    1.085872E-02	    6.194069E-04	    0.000000E+00	   -1.000000E+00	    1.600000E-03	    1.600000E-03	    8.010000E+02	    0.000000E+00	    0.000000E+00	    0.000000E+00	    0.000000E+00	
    1.078835E-02	    4.814321E-04	    0.000000E+00	   -1.000000E+00	    1.600000E-03	    1.600000E-03	    8.010000E+02	    0.000000E+00	    0.000000E+00	    0.000000E+00	    0.000000E+00	
    1.073071E-02	    3.715262E-04	    0.000000E+00	   -1.000000E+00	    1.600000E-03	    1.600000E-03	    8.010000E+02	    0.000000E+00	    0.000000E+00	    0.000000E+00	    0.000000E+00	
    1.068420E-02	    2.848073E-04	    0.000000E+00	   -1.000000E+00	    1.600000E-03	    1.600000E-03	    8.010000E+02	    0.000000E+00	    0.000000E+00	    0.000000E+00	    0.000000E+00	
    1.064721E-02	    2.170108E-04	    0.000000E+00	   -1.000000E+00	    1.600000E-03	    1.600000E-03	    8.010000E+02	    0.000000E+00	    0.000000E+00	    0.000000E+00	    0.000000E+00	
    1.061816E-02	    1.644719E-04	    0.000000E+00	   -1.000000E+00	    1.600000E-03	    1.600000E-03	    8.010000E+02	    0.000000E+00	    0.000000E+00	    0.000000E+00	    0.000000E+00	
    1.059560E-02	    1.240913E-04	    0.000000E+00	   -1.000000E+00	    1.600000E-03	    1.600000E-03	    8.010000E+02	    0.000000E+00	    0.000000E+00	    0.000000E+00	    0.000000E+00	
    1.057826E-02	    9.328967E-05	    0.000000E+00	   -1.000000E+00	    1.600000E-03	    1.600000E-03	    8.010000E+02	    0.000000E+00	    0.000000E+00	    0.000000E+00	    0.000000E+00	
    1.056504E-02	    6.995325E-05	    0.000000E+00	   -1.000000E+00	    1.600000E-03	    1.600000E-03	    8.010000E+02	    0.000000E+00	    0.000000E+00	    0.000000E+00	    0.000000E+00	
    1.055503E-02	    5.237613E-05	    0.000000E+00	   -1.000000E+00	    1.600000E-03	    1.600000E-03	    8.010000E+02	    0.000000E+00	    0.000000E+00	    0.000000E+00	    0.000000E+00	
    1.055100E-02	    4.531118E-05	    0.000000E+00	   -1.000000E+00	    1.600000E-03	    1.600000E-03	    8.010000E+02	    0.000000E+00	    0.000000E+00	    0.000000E+00	    0.000000E+00	
   -1.055076E-02	    4.544989E-05	    0.000000E+00	   -1.000000E+00	    1.600000E-03	    1.600000E-03	    8.010000E+02	    0.000000E+00	    0.000000E+00	    0.000000E+00	    0.000000E+00	
   -1.055475E-02	    5.253628E-05	    7.976765E-05	   -1.000000E+00	    1.600351E-03	    1.600000E-03	    8.010000E+02	    2.340143E-06	    1.603614E-03	    5.488957E+05	    6.019000E+04	
   -1.056466E-02	    7.016651E-05	    2.422510E-04	   -1.000000E+00	    1.600331E-03	    1.600000E-03	    8.010000E+02	    2.207703E-06	    8.001128E-04	    2.902974E+05	    3.116234E+05	
   -1.057775E-02	    9.357296E-05	    4.219399E-04	   -1.000000E+00	    1.600428E-03	    1.600000E-03	    8.010000E+02	    2.852430E-06	    7.510237E-04	    2.108974E+05	    5.314827E+05	
   -1.059493E-02	    1.244662E-04	    6.306770E-04	   -1.000000E+00	    1.600627E-03	    1.600000E-03	    8.010000E+02	    4.178027E-06	    9.106624E-04	    1.745897E+05	    6.709886E+05	
   -1.061727E-02	    1.649653E-04	    8.824637E-04	   -1.000000E+00	    1.600924E-03	    1.600000E-03	    8.010000E+02	    6.162955E-06	    1.127980E-03	    1.466037E+05	    7.476445E+05	
   -1.064603E-02	    2.176560E-04	    1.193633E-03	   -1.000000E+00	    1.601342E-03	    1.600000E-03	    8.010000E+02	    8.946888E-06	    1.365525E-03	    1.222532E+05	    7.854642E+05	
   -1.068265E-02	    2.856442E-04	    1.583560E-03	   -1.000000E+00	    1.601918E-03	    1.600000E-03	    8.010000E+02	    1.278923E-05	    1.620019E-03	    1.014631E+05	    8.022793E+05	
   -1.072867E-02	    3.726014E-04	    2.075119E-03	   -1.000000E+00	    1.602706E-03	    1.600000E-03	    8.010000E+02	    1.804297E-05	    1.894914E-03	    8.412287E+04	    8.091135E+05	
   -1.078570E-02	    4.827982E-04	    2.694838E-03	   -1.000000E+00	    1.603773E-03	    1.600000E-03	    8.010000E+02	    2.515202E-05	    2.193071E-03	    6.984131E+04	    8.119923E+05	
   -1.085528E-02	    6.211207E-04	    3.472828E-03	   -1.000000E+00	    1.605198E-03	    1.600000E-03	    8.010000E+02	    3.465437E-05	    2.515195E-03	    5.813614E+04	    8.137819E+05	
   -1.093872E-02	    7.930668E-04	    4.442606E-03	   -1.000000E+00	    1.607078E-03	    1.600000E-03	    8.010000E+02	    4.718406E-05	    2.859833E-03	    4.854873E+04	    8.155652E+05	
   -1.103688E-02	    1.004714E-03	    5.640834E-03	   -1.000000E+00	    1.609521E-03	    1.600000E-03	    8.010000E+02	    6.347010E-05	    3.223860E-03	    4.068549E+04	    8.175220E+05	
   -1.114991E-02	    1.262650E-03	    7.106851E-03	   -1.000000E+00	    1.612650E-03	    1.600000E-03	    8.010000E+02	    8.433098E-05	    3.603078E-03	    3.422308E+04	    8.194183E+05	
   -1.127693E-02	    1.573856E-03	    8.881873E-03	   -1.000000E+00	    1.616599E-03	    1.600000E-03	    8.010000E+02	    1.106630E-04	    3.992745E-03	    2.890026E+04	    8.208436E+05	
   -1.141567E-02	    1.945513E-03	    1.100773E-02	   -1.000000E+00	    1.621513E-03	    1.600000E-03	    8.010000E+02	    1.434199E-04	    4.387978E-03	    2.450686E+04	    8.213123E+05	
   -1.156208E-02	    2.384728E-03	    1.352505E-02	   -1.000000E+00	    1.627537E-03	    1.600000E-03	    8.010000E+02	    1.835805E-04	    4.784015E-03	    2.087365E+04	    8.203025E+05	
   -1.171005E-02	    2.898128E-03	    1.647078E-02	   -1.000000E+00	    1.634815E-03	    1.600000E-03	    8.010000E+02	    2.321015E-04	    5.176355E-03	    1.786399E+04	    8.172762E+05	
   -1.185105E-02	    3.491324E-03	    1.987498E-02	   -1.000000E+00	    1.643478E-03	    1.600000E-03	    8.010000E+02	    2.898504E-04	    5.560824E-03	    1.536731E+04	    8.117097E+05	
   -1.197409E-02	    4.168223E-03	    2.375698E-02	   -1.000000E+00	    1.653628E-03	    1.600000E-03	    8.010000E+02	    3.575202E-04	    5.933634E-03	    1.329391E+04	    8.031578E+05	
   -1.206574E-02	    4.930216E-03	    2.812095E-02	   -1.000000E+00	    1.665329E-03	    1.600000E-03	    8.010000E+02	    4.355268E-04	    6.291441E-03	    1.157092E+04	    7.913553E+05	
   -1.211065E-02	    5.775297E-03	    3.295120E-02	   -1.000000E+00	    1.678584E-03	    1.600000E-03	    8.010000E+02	    5.238961E-04	    6.631419E-03	    1.013897E+04	    7.763241E+05	
   -1.209227E-02	    6.697239E-03	    3.820804E-02	   -1.000000E+00	    1.693323E-03	    1.600000E-03	    8.010000E+02	    6.221546E-04	    6.951284E-03	    8.949510E+03	    7.584343E+05	
   -1.199417E-02	    7.684998E-03	    4.382511E-02	   -1.000000E+00	    1.709386E-03	    1.600000E-03	    8.010000E+02	    7.292381E-04	    7.249227E-03	    7.962599E+03	    7.383789E+05	
   -1.180156E-02	    8.722533E-03	    4.970898E-02	   -1.000000E+00	    1.726516E-03	    1.600000E-03	    8.010000E+02	    8.434419E-04	    7.523762E-03	    7.145167E+03	    7.170593E+05	
   -1.150305E-02	    9.789231E-03	    5.574195E-02	   -1.000000E+00	    1.744366E-03	    1.600000E-03	    8.010000E+02	    9.624425E-04	    7.773652E-03	    6.469680E+03	    6.954293E+05	
   -1.109225E-02	    1.086103E-02	    6.178821E-02	   -1.000000E+00	    1.762512E-03	    1.600000E-03	    8.010000E+02	    1.083412E-03	    7.997957E-03	    5.913137E+03	    6.743580E+05	
   -1.056898E-02	    1.191219E-02	    6.770358E-02	   -1.000000E+00	    1.780484E-03	    1.600000E-03	    8.010000E+02	    1.203227E-03	    8.196200E-03	    5.456288E+03	    6.545412E+05	
   -9.939654E-03	    1.291741E-02	    7.334741E-02	   -1.000000E+00	    1.797812E-03	    1.600000E-03	    8.010000E+02	    1.318747E-03	    8.368514E-03	    5.082991E+03	    6.364673E+05	
   -9.216901E-03	    1.385409E-02	    7.859483E-02	   -1.000000E+00	    1.814065E-03	    1.600000E-03	    8.010000E+02	    1.427102E-03	    8.515721E-03	    4.779682E+03	    6.204241E+05	
   -8.418280E-03	    1.470414E-02	    8.334700E-02	   -1.000000E+00	    1.828892E-03	    1.600000E-03	    8.010000E+02	    1.525948E-03	    8.639290E-03	    4.534932E+03	    6.065278E+05	
   -7.564479E-03	    1.545519E-02	    8.753744E-02	   -1.000000E+00	    1.842045E-03	    1.600000E-03	    8.010000E+02	    1.613633E-03	    8.741195E-03	    4.339089E+03	    5.947624E+05	
   -6.677295E-03	    1.610096E-02	    9.113386E-02	   -1.000000E+00	    1.853388E-03	    1.600000E-03	    8.010000E+02	    1.689253E-03	    8.823731E-03	    4.183984E+03	    5.850181E+05	
   -5.777768E-03	    1.664085E-02	    9.413567E-02	   -1.000000E+00	    1.862892E-03	    1.600000E-03	    8.010000E+02	    1.752617E-03	    8.889319E-03	    4.062694E+03	    5.771255E+05	
   -4.884733E-03	    1.707905E-02	    9.656847E-02	   -1.000000E+00	    1.870619E-03	    1.600000E-03	    8.010000E+02	    1.804127E-03	    8.940356E-03	    3.969357E+03	    5.708831E+05	
   -4.013907E-03	    1.742327E-02	    9.847702E-02	   -1.000000E+00	    1.876695E-03	    1.600000E-03	    8.010000E+02	    1.844635E-03	    8.979097E-03	    3.899013E+03	    5.660779E+05	
   -3.177501E-03	    1.768347E-02	    9.991799E-02	   -1.000000E+00	    1.881292E-03	    1.600000E-03	    8.010000E+02	    1.875277E-03	    9.007591E-03	    3.847475E+03	    5.624996E+05	
   -2.384258E-03	    1.787069E-02	    1.009536E-01	   -1.000000E+00	    1.884600E-03	    1.600000E-03	    8.010000E+02	    1.897332E-03	    9.027652E-03	    3.811220E+03	    5.599503E+05	
   -1.639787E-03	    1.799616E-02	    1.016466E-01	   -1.000000E+00	    1.886817E-03	    1.600000E-03	    8.010000E+02	    1.912111E-03	    9.040849E-03	    3.787291E+03	    5.582496E+05	
   -9.470528E-04	    1.807059E-02	    1.020567E-01	   -1.000000E+00	    1.888131E-03	    1.600000E-03	    8.010000E+02	    1.920870E-03	    9.048521E-03	    3.773220E+03	    5.572374E+05	
   -3.069145E-04	    1.810378E-02	    1.022382E-01	   -1.000000E+00	    1.888714E-03	    1.600000E-03	    8.010000E+02	    1.924762E-03	    9.051791E-03	    3.766950E+03	    5.567738E+05	
    3.069145E-04	    1.810378E-02	    1.022382E-01	   -1.000000E+00	    1.888714E-03	    1.600000E-03	    8.010000E+02	    1.924762E-03	    9.051791E-03	    3.766950E+03	    5.567738E+05	
    9.470528E-04	    1.807059E-02	    1.020567E-01	   -1.000000E+00	    1.888131E-03	    1.600000E-03	    8.010000E+02	    1.920870E-03	    9.048521E-03	    3.773220E+03	    5.572374E+05	
    1.639787E-03	    1.799616E-02	    1.016466E-01	   -1.000000E+00	    1.886817E-03	    1.600000E-03	    8.010000E+02	    1.912111E-03	    9.040849E-03	    3.787291E+03	    5.582496E+05	
    2.384258E-03	    1.787069E-02	    1.009536E-01	   -1.000000E+00	    1.884600E-03	    1.600000E-03	    8.010000E+02	    1.897332E-03	    9.027652E-03	    3.811220E+03	    5.599503E+05	
    3.177501E-03	    1.768347E-02	    9.991799E-02	   -1.000000E+00	    1.881292E-03	    1.600000E-03	    8.010000E+02	    1.875277E-03	    9.007592E-03	    3.847475E+03	    5.624997E+05	
    4.013907E-03	    1.742327E-02	    9.847703E-02	   -1.000000E+00	    1.876695E-03	    1.600000E-03	    8.010000E+02	    1.844635E-03	    8.979097E-03	    3.899013E+03	    5.660780E+05	
    4.884733E-03	    1.707905E-02	    9.656848E-02	   -1.000000E+00	    1.870619E-03	    1.600000E-03	    8.010000E+02	    1.804127E-03	    8.940356E-03	    3.969357E+03	    5.708832E+05	
    5.777768E-03	    1.664085E-02	    9.413568E-02	   -1.000000E+00	    1.862892E-03	    1.600000E-03	    8.010000E+02	    1.752617E-03	    8.889320E-03	    4.062694E+03	    5.771256E+05	
    6.677295E-03	    1.610096E-02	    9.113387E-02	   -1.000000E+00	    1.853388E-03	    1.600000E-03	    8.010000E+02	    1.689253E-03	    8.823732E-03	    4.183984E+03	    5.850182E+05	
    7.564479E-03	    1.545519E-02	    8.753745E-02	   -1.000000E+00	    1.842045E-03	    1.600000E-03	    8.010000E+02	    1.613633E-03	    8.741196E-03	    4.339090E+03	    5.947625E+05	
    8.418280E-03	    1.470414E-02	    8.334701E-02	   -1.000000E+00	    1.828892E-03	    1.600000E-03	    8.010000E+02	    1.525948E-03	    8.639291E-03	    4.534933E+03	    6.065279E+05	
    9.216901E-03	    1.385409E-02	    7.859484E-02	   -1.000000E+00	    1.814065E-03	    1.600000E-03	    8.010000E+02	    1.427102E-03	    8.515722E-03	    4.779682E+03	    6.204242E+05	
    9.939654E-03	    1.291741E-02	    7.334742E-02	   -1.000000E+00	    1.797812E-03	    1.600000E-03	    8.010000E+02	    1.318747E-03	    8.368515E-03	    5.082992E+03	    6.364675E+05	
    1.056898E-02	    1.191219E-02	    6.770359E-02	   -1.000000E+00	    1.780484E-03	    1.600000E-03	    8.010000E+02	    1.203228E-03	    8.196202E-03	    5.456289E+03	    6.545414E+05	
    1.109225E-02	    1.086103E-02	    6.178822E-02	   -1.000000E+00	    1.762512E-03	    1.600000E-03	    8.010000E+02	    1.083412E-03	    7.997959E-03	    5.913138E+03	    6.743583E+05	
    1.150305E-02	    9.789231E-03	    5.574196E-02	   -1.000000E+00	    1.744366E-03	    1.600000E-03	    8.010000E+02	    9.624426E-04	    7.773654E-03	    6.469681E+03	    6.954296E+05	
    1.180156E-02	    8.722533E-03	    4.970900E-02	   -1.000000E+00	    1.726516E-03	    1.600000E-03	    8.010000E+02	    8.434421E-04	    7.523765E-03	    7.145168E+03	    7.170596E+05	
    1.199417E-02	    7.684998E-03	    4.382512E-02	   -1.000000E+00	    1.709386E-03	    1.600000E-03	    8.010000E+02	    7.292382E-04	    7.249230E-03	    7.962601E+03	    7.383794E+05	
    1.209227E-02	    6.697239E-03	    3.820805E-02	   -1.000000E+00	    1.693323E-03	    1.600000E-03	    8.010000E+02	    6.221548E-04	    6.951287E-03	    8.949512E+03	    7.584348E+05	
    1.211065E-02	    5.775297E-03	    3.295121E-02	   -1.000000E+00	    1.678584E-03	    1.600000E-03	    8.010000E+02	    5.238962E-04	    6.631422E-03	    1.013897E+04	    7.763247E+05	
    1.206574E-02	    4.930216E-03	    2.812096E-02	   -1.000000E+00	    1.665329E-03	    1.600000E-03	    8.010000E+02	    4.355269E-04	    6.291445E-03	    1.157092E+04	    7.913561E+05	
    1.197409E-02	    4.168223E-03	    2.375700E-02	   -1.000000E+00	    1.653628E-03	    1.600000E-03	    8.010000E+02	    3.575204E-04	    5.933638E-03	    1.329391E+04	    8.031587E+05	
    1.185105E-02	    3.491324E-03	    1.987499E-02	   -1.000000E+00	    1.643478E-03	    1.600000E-03	    8.010000E+02	    2.898505E-04	    5.560829E-03	    1.536731E+04	    8.117108E+05	
    1.171005E-02	    2.898128E-03	    1.647079E-02	   -1.000000E+00	    1.634815E-03	    1.600000E-03	    8.010000E+02	    2.321016E-04	    5.176359E-03	    1.786400E+04	    8.172775E+05	
    1.156208E-02	    2.384728E-03	    1.352507E-02	   -1.000000E+00	    1.627537E-03	    1.600000E-03	    8.010000E+02	    1.835806E-04	    4.784020E-03	    2.087366E+04	    8.203040E+05	
    1.141567E-02	    1.945513E-03	    1.100774E-02	   -1.000000E+00	    1.621513E-03	    1.600000E-03	    8.010000E+02	    1.434199E-04	    4.387983E-03	    2.450687E+04	    8.213140E+05	
    1.127693E-02	    1.573856E-03	    8.881884E-03	   -1.000000E+00	    1.616599E-03	    1.600000E-03	    8.010000E+02	    1.106631E-04	    3.992750E-03	    2.890028E+04	    8.208457E+05	
    1.114991E-02	    1.262650E-03	    7.106862E-03	   -1.000000E+00	    1.612650E-03	    1.600000E-03	    8.010000E+02	    8.433104E-05	    3.603084E-03	    3.422310E+04	    8.194208E+05	
    1.103688E-02	    1.004714E-03	    5.640844E-03	   -1.000000E+00	    1.609521E-03	    1.600000E-03	    8.010000E+02	    6.347015E-05	    3.223866E-03	    4.068552E+04	    8.175249E+05	
    1.093872E-02	    7.930668E-04	    4.442616E-03	   -1.000000E+00	    1.607078E-03	    1.600000E-03	    8.010000E+02	    4.718410E-05	    2.859838E-03	    4.854877E+04	    8.155687E+05	
    1.085528E-02	    6.211207E-04	    3.472837E-03	   -1.000000E+00	    1.605198E-03	    1.600000E-03	    8.010000E+02	    3.465440E-05	    2.515200E-03	    5.813619E+04	    8.137862E+05	
    1.078570E-02	    4.827982E-04	    2.694847E-03	   -1.000000E+00	    1.603773E-03	    1.600000E-03	    8.010000E+02	    2.515204E-05	    2.193075E-03	    6.984138E+04	    8.119978E+05	
    1.072867E-02	    3.726014E-04	    2.075128E-03	   -1.000000E+00	    1.602706E-03	    1.600000E-03	    8.010000E+02	    1.804299E-05	    1.894918E-03	    8.412297E+04	    8.091212E+05	
    1.068265E-02	    2.856442E-04	    1.583571E-03	   -1.000000E+00	    1.601918E-03	    1.600000E-03	    8.010000E+02	    1.278926E-05	    1.620026E-03	    1.014633E+05	    8.022909E+05	
    1.064603E-02	    2.176560E-04	    1.193647E-03	   -1.000000E+00	    1.601342E-03	    1.600000E-03	    8.010000E+02	    8.946922E-06	    1.365535E-03	    1.222536E+05	    7.854828E+05	