Title="Fields"
Variables="X""Y""Velocity""Phi""Effective Viscosity""Dynamic Viscosity""Density""Eddy Viscosity""K""Epsilon""S"
Zone I=82 J=82 F=POINT
   -2.799999E-02	    1.388098E-04	    0.000000E+00	   -1.000000E+00	    1.640000E-03	    1.640000E-03	    7.900000E+02	    0.000000E+00	    0.000000E+00	    0.000000E+00	    0.000000E+00	
   -2.799996E-02	    1.603917E-04	    0.000000E+00	   -1.000000E+00	    1.640000E-03	    1.640000E-03	    7.900000E+02	    0.000000E+00	    0.000000E+00	    0.000000E+00	    0.000000E+00	
   -2.799982E-02	    2.140143E-04	    0.000000E+00	   -1.000000E+00	    1.640000E-03	    1.640000E-03	    7.900000E+02	    0.000000E+00	    0.000000E+00	    0.000000E+00	    0.000000E+00	
   -2.799947E-02	    2.850493E-04	    0.000000E+00	   -1.000000E+00	    1.640000E-03	    1.640000E-03	    7.900000E+02	    0.000000E+00	    0.000000E+00	    0.000000E+00	    0.000000E+00	
   -2.799874E-02	    3.785341E-04	    0.000000E+00	   -1.000000E+00	    1.640000E-03	    1.640000E-03	    7.900000E+02	    0.000000E+00	    0.000000E+00	    0.000000E+00	    0.000000E+00	
   -2.799731E-02	    5.006213E-04	    0.000000E+00	   -1.000000E+00	    1.640000E-03	    1.640000E-03	    7.900000E+02	    0.000000E+00	    0.000000E+00	    0.000000E+00	    0.000000E+00	
   -2.799467E-02	    6.586755E-04	    0.000000E+00	   -1.000000E+00	    1.640000E-03	    1.640000E-03	    7.900000E+02	    0.000000E+00	    0.000000E+00	    0.000000E+00	    0.000000E+00	
   -2.798998E-02	    8.613157E-04	    0.000000E+00	   -1.000000E+00	    1.640000E-03	    1.640000E-03	    7.900000E+02	    0.000000E+00	    0.000000E+00	    0.000000E+00	    0.000000E+00	
   -2.798192E-02	    1.118380E-03	    0.000000E+00	   -1.000000E+00	    1.640000E-03	    1.640000E-03	    7.900000E+02	    0.000000E+00	    0.000000E+00	    0.000000E+00	    0.000000E+00	
   -2.796847E-02	    1.440785E-03	    0.000000E+00	   -1.000000E+00	    1.640000E-03	    1.640000E-03	    7.900000E+02	    0.000000E+00	    0.000000E+00	    0.000000E+00	    0.000000E+00	
   -2.794664E-02	    1.840254E-03	    0.000000E+00	   -1.000000E+00	    1.640000E-03	    1.640000E-03	    7.900000E+02	    0.000000E+00	    0.000000E+00	    0.000000E+00	    0.000000E+00	
   -2.791213E-02	    2.328893E-03	    0.000000E+00	   -1.000000E+00	    1.640000E-03	    1.640000E-03	    7.900000E+02	    0.000000E+00	    0.000000E+00	    0.000000E+00	    0.000000E+00	
   -2.785902E-02	    2.918603E-03	    0.000000E+00	   -1.000000E+00	    1.640000E-03	    1.640000E-03	    7.900000E+02	    0.000000E+00	    0.000000E+00	    0.000000E+00	    0.000000E+00	
   -2.777939E-02	    3.620323E-03	    0.000000E+00	   -1.000000E+00	    1.640000E-03	    1.640000E-03	    7.900000E+02	    0.000000E+00	    0.000000E+00	    0.000000E+00	    0.000000E+00	
   -2.766306E-02	    4.443112E-03	    0.000000E+00	   -1.000000E+00	    1.640000E-03	    1.640000E-03	    7.900000E+02	    0.000000E+00	    0.000000E+00	    0.000000E+00	    0.000000E+00	
   -2.749753E-02	    5.393115E-03	    0.000000E+00	   -1.000000E+00	    1.640000E-03	    1.640000E-03	    7.900000E+02	    0.000000E+00	    0.000000E+00	    0.000000E+00	    0.000000E+00	
   -2.726810E-02	    6.472482E-03	    0.000000E+00	   -1.000000E+00	    1.640000E-03	    1.640000E-03	    7.900000E+02	    0.000000E+00	    0.000000E+00	    0.000000E+00	    0.000000E+00	
   -2.695842E-02	    7.678326E-03	    0.000000E+00	   -1.000000E+00	    1.640000E-03	    1.640000E-03	    7.900000E+02	    0.000000E+00	    0.000000E+00	    0.000000E+00	    0.000000E+00	
   -2.655140E-02	    9.001890E-03	    0.000000E+00	   -1.000000E+00	    1.640000E-03	    1.640000E-03	    7.900000E+02	    0.000000E+00	    0.000000E+00	    0.000000E+00	    0.000000E+00	
   -2.603049E-02	    1.042807E-02	    0.000000E+00	   -1.000000E+00	    1.640000E-03	    1.640000E-03	    7.900000E+02	    0.000000E+00	    0.000000E+00	    0.000000E+00	    0.000000E+00	
   -2.538138E-02	    1.193549E-02	    0.000000E+00	   -1.000000E+00	    1.640000E-03	    1.640000E-03	    7.900000E+02	    0.000000E+00	    0.000000E+00	    0.000000E+00	    0.000000E+00	
   -2.459364E-02	    1.349718E-02	    0.000000E+00	   -1.000000E+00	    1.640000E-03	    1.640000E-03	    7.900000E+02	    0.000000E+00	    0.000000E+00	    0.000000E+00	    0.000000E+00	
   -2.366240E-02	    1.508204E-02	    0.000000E+00	   -1.000000E+00	    1.640000E-03	    1.640000E-03	    7.900000E+02	    0.000000E+00	    0.000000E+00	    0.000000E+00	    0.000000E+00	
   -2.258942E-02	    1.665681E-02	    0.000000E+00	   -1.000000E+00	    1.640000E-03	    1.640000E-03	    7.900000E+02	    0.000000E+00	    0.000000E+00	    0.000000E+00	    0.000000E+00	
   -2.138353E-02	    1.818846E-02	    0.000000E+00	   -1.000000E+00	    1.640000E-03	    1.640000E-03	    7.900000E+02	    0.000000E+00	    0.000000E+00	    0.000000E+00	    0.000000E+00	
   -2.006031E-02	    1.964656E-02	    0.000000E+00	   -1.000000E+00	    1.640000E-03	    1.640000E-03	    7.900000E+02	    0.000000E+00	    0.000000E+00	    0.000000E+00	    0.000000E+00	
   -1.864087E-02	    2.100540E-02	    0.000000E+00	   -1.000000E+00	    1.640000E-03	    1.640000E-03	    7.900000E+02	    0.000000E+00	    0.000000E+00	    0.000000E+00	    0.000000E+00	
   -1.715019E-02	    2.224542E-02	    0.000000E+00	   -1.000000E+00	    1.640000E-03	    1.640000E-03	    7.900000E+02	    0.000000E+00	    0.000000E+00	    0.000000E+00	    0.000000E+00	
   -1.561504E-02	    2.335395E-02	    0.000000E+00	   -1.000000E+00	    1.640000E-03	    1.640000E-03	    7.900000E+02	    0.000000E+00	    0.000000E+00	    0.000000E+00	    0.000000E+00	
   -1.406208E-02	    2.432515E-02	    0.000000E+00	   -1.000000E+00	    1.640000E-03	    1.640000E-03	    7.900000E+02	    0.000000E+00	    0.000000E+00	    0.000000E+00	    0.000000E+00	
   -1.251610E-02	    2.515929E-02	    0.000000E+00	   -1.000000E+00	    1.640000E-03	    1.640000E-03	    7.900000E+02	    0.000000E+00	    0.000000E+00	    0.000000E+00	    0.000000E+00	
   -1.099886E-02	    2.586166E-02	    0.000000E+00	   -1.000000E+00	    1.640000E-03	    1.640000E-03	    7.900000E+02	    0.000000E+00	    0.000000E+00	    0.000000E+00	    0.000000E+00	
   -9.528359E-03	    2.644127E-02	    0.000000E+00	   -1.000000E+00	    1.640000E-03	    1.640000E-03	    7.900000E+02	    0.000000E+00	    0.000000E+00	    0.000000E+00	    0.000000E+00	
   -8.118547E-03	    2.690957E-02	    0.000000E+00	   -1.000000E+00	    1.640000E-03	    1.640000E-03	    7.900000E+02	    0.000000E+00	    0.000000E+00	    0.000000E+00	    0.000000E+00	
   -6.779482E-03	    2.727925E-02	    0.000000E+00	   -1.000000E+00	    1.640000E-03	    1.640000E-03	    7.900000E+02	    0.000000E+00	    0.000000E+00	    0.000000E+00	    0.000000E+00	
   -5.517680E-03	    2.756334E-02	    0.000000E+00	   -1.000000E+00	    1.640000E-03	    1.640000E-03	    7.900000E+02	    0.000000E+00	    0.000000E+00	    0.000000E+00	    0.000000E+00	
   -4.336623E-03	    2.777452E-02	    0.000000E+00	   -1.000000E+00	    1.640000E-03	    1.640000E-03	    7.900000E+02	    0.000000E+00	    0.000000E+00	    0.000000E+00	    0.000000E+00	
   -3.237321E-03	    2.792461E-02	    0.000000E+00	   -1.000000E+00	    1.640000E-03	    1.640000E-03	    7.900000E+02	    0.000000E+00	    0.000000E+00	    0.000000E+00	    0.000000E+00	
   -2.218859E-03	    2.802433E-02	    0.000000E+00	   -1.000000E+00	    1.640000E-03	    1.640000E-03	    7.900000E+02	    0.000000E+00	    0.000000E+00	    0.000000E+00	    0.000000E+00	
   -1.278895E-03	    2.808316E-02	    0.000000E+00	   -1.000000E+00	    1.640000E-03	    1.640000E-03	    7.900000E+02	    0.000000E+00	    0.000000E+00	    0.000000E+00	    0.000000E+00	
   -4.140810E-04	    2.810932E-02	    0.000000E+00	   -1.000000E+00	    1.640000E-03	    1.640000E-03	    7.900000E+02	    0.000000E+00	    0.000000E+00	    0.000000E+00	    0.000000E+00	
    4.140810E-04	    2.810932E-02	    0.000000E+00	   -1.000000E+00	    1.640000E-03	    1.640000E-03	    7.900000E+02	    0.000000E+00	    0.000000E+00	    0.000000E+00	    0.000000E+00	
    1.278895E-03	    2.808316E-02	    0.000000E+00	   -1.000000E+00	    1.640000E-03	    1.640000E-03	    7.900000E+02	    0.000000E+00	    0.000000E+00	    0.000000E+00	    0.000000E+00	
    2.218859E-03	    2.802433E-02	    0.000000E+00	   -1.000000E+00	    1.640000E-03	    1.640000E-03	    7.900000E+02	    0.000000E+00	    0.000000E+00	    0.000000E+00	    0.000000E+00	
    3.237321E-03	    2.792461E-02	    0.000000E+00	   -1.000000E+00	    1.640000E-03	    1.640000E-03	    7.900000E+02	    0.000000E+00	    0.000000E+00	    0.000000E+00	    0.000000E+00	
    4.336623E-03	    2.777452E-02	    0.000000E+00	   -1.000000E+00	    1.640000E-03	    1.640000E-03	    7.900000E+02	    0.000000E+00	    0.000000E+00	    0.000000E+00	    0.000000E+00	
    5.517680E-03	    2.756334E-02	    0.000000E+00	   -1.000000E+00	    1.640000E-03	    1.640000E-03	    7.900000E+02	    0.000000E+00	    0.000000E+00	    0.000000E+00	    0.000000E+00	
    6.779482E-03	    2.727925E-02	    0.000000E+00	   -1.000000E+00	    1.640000E-03	    1.640000E-03	    7.900000E+02	    0.000000E+00	    0.000000E+00	    0.000000E+00	    0.000000E+00	
    8.118547E-03	    2.690957E-02	    0.000000E+00	   -1.000000E+00	    1.640000E-03	    1.640000E-03	    7.900000E+02	    0.000000E+00	    0.000000E+00	    0.000000E+00	    0.000000E+00	
    9.528359E-03	    2.644127E-02	    0.000000E+00	   -1.000000E+00	    1.640000E-03	    1.640000E-03	    7.900000E+02	    0.000000E+00	    0.000000E+00	    0.000000E+00	    0.000000E+00	
    1.099886E-02	    2.586166E-02	    0.000000E+00	   -1.000000E+00	    1.640000E-03	    1.640000E-03	    7.900000E+02	    0.000000E+00	    0.000000E+00	    0.000000E+00	    0.000000E+00	
    1.251610E-02	    2.515929E-02	    0.000000E+00	   -1.000000E+00	    1.640000E-03	    1.640000E-03	    7.900000E+02	    0.000000E+00	    0.000000E+00	    0.000000E+00	    0.000000E+00	
    1.406208E-02	    2.432515E-02	    0.000000E+00	   -1.000000E+00	    1.640000E-03	    1.640000E-03	    7.900000E+02	    0.000000E+00	    0.000000E+00	    0.000000E+00	    0.000000E+00	
    1.561504E-02	    2.335395E-02	    0.000000E+00	   -1.000000E+00	    1.640000E-03	    1.640000E-03	    7.900000E+02	    0.000000E+00	    0.000000E+00	    0.000000E+00	    0.000000E+00	
    1.715019E-02	    2.224542E-02	    0.000000E+00	   -1.000000E+00	    1.640000E-03	    1.640000E-03	    7.900000E+02	    0.000000E+00	    0.000000E+00	    0.000000E+00	    0.000000E+00	
    1.864087E-02	    2.100540E-02	    0.000000E+00	   -1.000000E+00	    1.640000E-03	    1.640000E-03	    7.900000E+02	    0.000000E+00	    0.000000E+00	    0.000000E+00	    0.000000E+00	
    2.006031E-02	    1.964656E-02	    0.000000E+00	   -1.000000E+00	    1.640000E-03	    1.640000E-03	    7.900000E+02	    0.000000E+00	    0.000000E+00	    0.000000E+00	    0.000000E+00	
    2.138353E-02	    1.818846E-02	    0.000000E+00	   -1.000000E+00	    1.640000E-03	    1.640000E-03	    7.900000E+02	    0.000000E+00	    0.000000E+00	    0.000000E+00	    0.000000E+00	
    2.258942E-02	    1.665681E-02	    0.000000E+00	   -1.000000E+00	    1.640000E-03	    1.640000E-03	    7.900000E+02	    0.000000E+00	    0.000000E+00	    0.000000E+00	    0.000000E+00	
    2.366240E-02	    1.508204E-02	    0.000000E+00	   -1.000000E+00	    1.640000E-03	    1.640000E-03	    7.900000E+02	    0.000000E+00	    0.000000E+00	    0.000000E+00	    0.000000E+00	
    2.459364E-02	    1.349718E-02	    0.000000E+00	   -1.000000E+00	    1.640000E-03	    1.640000E-03	    7.900000E+02	    0.000000E+00	    0.000000E+00	    0.000000E+00	    0.000000E+00	
    2.538138E-02	    1.193549E-02	    0.000000E+00	   -1.000000E+00	    1.640000E-03	    1.640000E-03	    7.900000E+02	    0.000000E+00	    0.000000E+00	    0.000000E+00	    0.000000E+00	
    2.603049E-02	    1.042807E-02	    0.000000E+00	   -1.000000E+00	    1.640000E-03	    1.640000E-03	    7.900000E+02	    0.000000E+00	    0.000000E+00	    0.000000E+00	    0.000000E+00	
    2.655140E-02	    9.001890E-03	    0.000000E+00	   -1.000000E+00	    1.640000E-03	    1.640000E-03	    7.900000E+02	    0.000000E+00	    0.000000E+00	    0.000000E+00	    0.000000E+00	
    2.695842E-02	    7.678326E-03	    0.000000E+00	   -1.000000E+00	    1.640000E-03	    1.640000E-03	    7.900000E+02	    0.000000E+00	    0.000000E+00	    0.000000E+00	    0.000000E+00	
    2.726810E-02	    6.472482E-03	    0.000000E+00	   -1.000000E+00	    1.640000E-03	    1.640000E-03	    7.900000E+02	    0.000000E+00	    0.000000E+00	    0.000000E+00	    0.000000E+00	
    2.749753E-02	    5.393115E-03	    0.000000E+00	   -1.000000E+00	    1.640000E-03	    1.640000E-03	    7.900000E+02	    0.000000E+00	    0.000000E+00	    0.000000E+00	    0.000000E+00	
    2.766306E-02	    4.443112E-03	    0.000000E+00	   -1.000000E+00	    1.640000E-03	    1.640000E-03	    7.900000E+02	    0.000000E+00	    0.000000E+00	    0.000000E+00	    0.000000E+00	
    2.777939E-02	    3.620323E-03	    0.000000E+00	   -1.000000E+00	    1.640000E-03	    1.640000E-03	    7.900000E+02	    0.000000E+00	    0.000000E+00	    0.000000E+00	    0.000000E+00	
    2.785902E-02	    2.918603E-03	    0.000000E+00	   -1.000000E+00	    1.640000E-03	    1.640000E-03	    7.900000E+02	    0.000000E+00	    0.000000E+00	    0.000000E+00	    0.000000E+00	
    2.791213E-02	    2.328893E-03	    0.000000E+00	   -1.000000E+00	    1.640000E-03	    1.640000E-03	    7.900000E+02	    0.000000E+00	    0.000000E+00	    0.000000E+00	    0.000000E+00	
    2.794664E-02	    1.840254E-03	    0.000000E+00	   -1.000000E+00	    1.640000E-03	    1.640000E-03	    7.900000E+02	    0.000000E+00	    0.000000E+00	    0.000000E+00	    0.000000E+00	
    2.796847E-02	    1.440785E-03	    0.000000E+00	   -1.000000E+00	    1.640000E-03	    1.640000E-03	    7.900000E+02	    0.000000E+00	    0.000000E+00	    0.000000E+00	    0.000000E+00	
    2.798192E-02	    1.118380E-03	    0.000000E+00	   -1.000000E+00	    1.640000E-03	    1.640000E-03	    7.900000E+02	    0.000000E+00	    0.000000E+00	    0.000000E+00	    0.000000E+00	
    2.798998E-02	    8.613157E-04	    0.000000E+00	   -1.000000E+00	    1.640000E-03	    1.640000E-03	    7.900000E+02	    0.000000E+00	    0.000000E+00	    0.000000E+00	    0.000000E+00	
    2.799467E-02	    6.586755E-04	    0.000000E+00	   -1.000000E+00	    1.640000E-03	    1.640000E-03	    7.900000E+02	    0.000000E+00	    0.000000E+00	    0.000000E+00	    0.000000E+00	
    2.799731E-02	    5.006213E-04	    0.000000E+00	   -1.000000E+00	    1.640000E-03	    1.640000E-03	    7.900000E+02	    0.000000E+00	    0.000000E+00	    0.000000E+00	    0.000000E+00	
    2.799874E-02	    3.785341E-04	    0.000000E+00	   -1.000000E+00	    1.640000E-03	    1.640000E-03	    7.900000E+02	    0.000000E+00	    0.000000E+00	    0.000000E+00	    0.000000E+00	
    2.799947E-02	    2.850493E-04	    0.000000E+00	   -1.000000E+00	    1.640000E-03	    1.640000E-03	    7.900000E+02	    0.000000E+00	    0.000000E+00	    0.000000E+00	    0.000000E+00	
    2.799982E-02	    2.140143E-04	    0.000000E+00	   -1.000000E+00	    1.640000E-03	    1.640000E-03	    7.900000E+02	    0.000000E+00	    0.000000E+00	    0.000000E+00	    0.000000E+00	
    2.799996E-02	    1.603917E-04	    0.000000E+00	   -1.000000E+00	    1.640000E-03	    1.640000E-03	    7.900000E+02	    0.000000E+00	    0.000000E+00	    0.000000E+00	    0.000000E+00	
    2.799999E-02	    1.388098E-04	    0.000000E+00	   -1.000000E+00	    1.640000E-03	    1.640000E-03	    7.900000E+02	    0.000000E+00	    0.000000E+00	    0.000000E+00	    0.000000E+00	
   -2.799943E-02	    1.388081E-04	    0.000000E+00	   -1.000000E+00	    1.640000E-03	    1.640000E-03	    7.900000E+02	    0.000000E+00	    0.000000E+00	    0.000000E+00	    0.000000E+00	
   -2.799931E-02	    1.603893E-04	    7.251502E-05	   -1.000000E+00	    1.640577E-03	    1.640000E-03	    7.900000E+02	    3.848425E-06	    1.120120E-03	    2.318010E+01	    1.245382E+04	
   -2.799895E-02	    2.140094E-04	    2.190220E-04	   -1.000000E+00	    1.640539E-03	    1.640000E-03	    7.900000E+02	    3.595803E-06	    5.492522E-04	    5.965094E+00	    6.410757E+04	
   -2.799832E-02	    2.850399E-04	    3.841656E-04	   -1.000000E+00	    1.640788E-03	    1.640000E-03	    7.900000E+02	    5.256104E-06	    6.615427E-04	    5.919996E+00	    1.111564E+05	
   -2.799721E-02	    3.785164E-04	    5.786950E-04	   -1.000000E+00	    1.641200E-03	    1.640000E-03	    7.900000E+02	    7.999550E-06	    8.689543E-04	    6.711165E+00	    1.429898E+05	
   -2.799529E-02	    5.005892E-04	    8.128416E-04	   -1.000000E+00	    1.641769E-03	    1.640000E-03	    7.900000E+02	    1.179371E-05	    1.079856E-03	    7.029929E+00	    1.612269E+05	
   -2.799201E-02	    6.586181E-04	    1.098586E-03	   -1.000000E+00	    1.642540E-03	    1.640000E-03	    7.900000E+02	    1.693293E-05	    1.285922E-03	    6.943317E+00	    1.700325E+05	
   -2.798650E-02	    8.612156E-04	    1.450593E-03	   -1.000000E+00	    1.643576E-03	    1.640000E-03	    7.900000E+02	    2.384084E-05	    1.490818E-03	    6.628225E+00	    1.732388E+05	
   -2.797741E-02	    1.118209E-03	    1.885664E-03	   -1.000000E+00	    1.644955E-03	    1.640000E-03	    7.900000E+02	    3.303269E-05	    1.697583E-03	    6.202802E+00	    1.734503E+05	
   -2.796266E-02	    1.440497E-03	    2.422146E-03	   -1.000000E+00	    1.646766E-03	    1.640000E-03	    7.900000E+02	    4.510371E-05	    1.907078E-03	    5.733165E+00	    1.721879E+05	
   -2.793922E-02	    1.839780E-03	    3.079371E-03	   -1.000000E+00	    1.649107E-03	    1.640000E-03	    7.900000E+02	    6.071463E-05	    2.118355E-03	    5.255013E+00	    1.702586E+05	
   -2.790275E-02	    2.328129E-03	    3.876939E-03	   -1.000000E+00	    1.652085E-03	    1.640000E-03	    7.900000E+02	    8.056763E-05	    2.329273E-03	    4.787950E+00	    1.680493E+05	
   -2.784729E-02	    2.917398E-03	    4.833743E-03	   -1.000000E+00	    1.655806E-03	    1.640000E-03	    7.900000E+02	    1.053719E-04	    2.537080E-03	    4.343234E+00	    1.657105E+05	
   -2.776488E-02	    3.618462E-03	    5.966727E-03	   -1.000000E+00	    1.660370E-03	    1.640000E-03	    7.900000E+02	    1.357994E-04	    2.738924E-03	    3.927640E+00	    1.632639E+05	
   -2.764533E-02	    4.440300E-03	    7.289402E-03	   -1.000000E+00	    1.665865E-03	    1.640000E-03	    7.900000E+02	    1.724339E-04	    2.932254E-03	    3.545275E+00	    1.606655E+05	
   -2.747614E-02	    5.388964E-03	    8.810224E-03	   -1.000000E+00	    1.672357E-03	    1.640000E-03	    7.900000E+02	    2.157151E-04	    3.115098E-03	    3.198397E+00	    1.578501E+05	
   -2.724265E-02	    6.466493E-03	    1.053099E-02	   -1.000000E+00	    1.679882E-03	    1.640000E-03	    7.900000E+02	    2.658833E-04	    3.286231E-03	    2.887850E+00	    1.547677E+05	
   -2.692858E-02	    7.669888E-03	    1.244539E-02	   -1.000000E+00	    1.688439E-03	    1.640000E-03	    7.900000E+02	    3.229279E-04	    3.445175E-03	    2.613284E+00	    1.514086E+05	
   -2.651695E-02	    8.990282E-03	    1.453787E-02	   -1.000000E+00	    1.697981E-03	    1.640000E-03	    7.900000E+02	    3.865389E-04	    3.591988E-03	    2.373265E+00	    1.478117E+05	
   -2.599137E-02	    1.041249E-02	    1.678308E-02	   -1.000000E+00	    1.708410E-03	    1.640000E-03	    7.900000E+02	    4.560670E-04	    3.726957E-03	    2.165458E+00	    1.440557E+05	
   -2.533773E-02	    1.191506E-02	    1.914626E-02	   -1.000000E+00	    1.719576E-03	    1.640000E-03	    7.900000E+02	    5.305087E-04	    3.850386E-03	    1.986944E+00	    1.402417E+05	
   -2.454583E-02	    1.347105E-02	    2.158456E-02	   -1.000000E+00	    1.731279E-03	    1.640000E-03	    7.900000E+02	    6.085276E-04	    3.962522E-03	    1.834564E+00	    1.364752E+05	
   -2.361101E-02	    1.504940E-02	    2.404941E-02	   -1.000000E+00	    1.743278E-03	    1.640000E-03	    7.900000E+02	    6.885197E-04	    4.063581E-03	    1.705183E+00	    1.328518E+05	
   -2.253524E-02	    1.661700E-02	    2.648964E-02	   -1.000000E+00	    1.755308E-03	    1.640000E-03	    7.900000E+02	    7.687191E-04	    4.153808E-03	    1.595860E+00	    1.294485E+05	
   -2.132755E-02	    1.814098E-02	    2.885507E-02	   -1.000000E+00	    1.767099E-03	    1.640000E-03	    7.900000E+02	    8.473292E-04	    4.233535E-03	    1.503917E+00	    1.263209E+05	
   -2.000359E-02	    1.959117E-02	    3.110004E-02	   -1.000000E+00	    1.778399E-03	    1.640000E-03	    7.900000E+02	    9.226607E-04	    4.303213E-03	    1.426965E+00	    1.235027E+05	
   -1.858453E-02	    2.094208E-02	    3.318646E-02	   -1.000000E+00	    1.788988E-03	    1.640000E-03	    7.900000E+02	    9.932551E-04	    4.363416E-03	    1.362894E+00	    1.210088E+05	
   -1.709530E-02	    2.217440E-02	    3.508584E-02	   -1.000000E+00	    1.798696E-03	    1.640000E-03	    7.900000E+02	    1.057975E-03	    4.414832E-03	    1.309853E+00	    1.188381E+05	
   -1.556259E-02	    2.327569E-02	    3.678022E-02	   -1.000000E+00	    1.807408E-03	    1.640000E-03	    7.900000E+02	    1.116053E-03	    4.458228E-03	    1.266221E+00	    1.169780E+05	
   -1.401288E-02	    2.424024E-02	    3.826195E-02	   -1.000000E+00	    1.815064E-03	    1.640000E-03	    7.900000E+02	    1.167093E-03	    4.494419E-03	    1.230585E+00	    1.154075E+05	
   -1.247081E-02	    2.506846E-02	    3.953255E-02	   -1.000000E+00	    1.821656E-03	    1.640000E-03	    7.900000E+02	    1.211038E-03	    4.524232E-03	    1.201716E+00	    1.141006E+05	
   -1.095796E-02	    2.576569E-02	    4.060100E-02	   -1.000000E+00	    1.827217E-03	    1.640000E-03	    7.900000E+02	    1.248114E-03	    4.548473E-03	    1.178547E+00	    1.130290E+05	
   -9.492135E-03	    2.634096E-02	    4.148171E-02	   -1.000000E+00	    1.831814E-03	    1.640000E-03	    7.900000E+02	    1.278757E-03	    4.567908E-03	    1.160156E+00	    1.121637E+05	
   -8.087138E-03	    2.680568E-02	    4.219257E-02	   -1.000000E+00	    1.835532E-03	    1.640000E-03	    7.900000E+02	    1.303544E-03	    4.583245E-03	    1.145751E+00	    1.114767E+05	
   -6.752895E-03	    2.717249E-02	    4.275327E-02	   -1.000000E+00	    1.838469E-03	    1.640000E-03	    7.900000E+02	    1.323128E-03	    4.595124E-03	    1.134651E+00	    1.109416E+05	
   -5.495817E-03	    2.745435E-02	    4.318382E-02	   -1.000000E+00	    1.840728E-03	    1.640000E-03	    7.900000E+02	    1.338187E-03	    4.604113E-03	    1.126276E+00	    1.105345E+05	
   -4.319309E-03	    2.766385E-02	    4.350362E-02	   -1.000000E+00	    1.842408E-03	    1.640000E-03	    7.900000E+02	    1.349385E-03	    4.610712E-03	    1.120134E+00	    1.102338E+05	
   -3.224326E-03	    2.781274E-02	    4.373072E-02	   -1.000000E+00	    1.843602E-03	    1.640000E-03	    7.900000E+02	    1.357344E-03	    4.615352E-03	    1.115807E+00	    1.100209E+05	
   -2.209921E-03	    2.791166E-02	    4.388143E-02	   -1.000000E+00	    1.844395E-03	    1.640000E-03	    7.900000E+02	    1.362632E-03	    4.618401E-03	    1.112947E+00	    1.098793E+05	
   -1.273732E-03	    2.797002E-02	    4.397013E-02	   -1.000000E+00	    1.844862E-03	    1.640000E-03	    7.900000E+02	    1.365749E-03	    4.620173E-03	    1.111259E+00	    1.097950E+05	
   -4.124079E-04	    2.799597E-02	    4.400926E-02	   -1.000000E+00	    1.845070E-03	    1.640000E-03	    7.900000E+02	    1.367130E-03	    4.620929E-03	    1.110500E+00	    1.097561E+05	
    4.124079E-04	    2.799597E-02	    4.400926E-02	   -1.000000E+00	    1.845070E-03	    1.640000E-03	    7.900000E+02	    1.367130E-03	    4.620929E-03	    1.110500E+00	    1.097561E+05	
    1.273732E-03	    2.797002E-02	    4.397013E-02	   -1.000000E+00	    1.844862E-03	    1.640000E-03	    7.900000E+02	    1.365749E-03	    4.620173E-03	    1.111259E+00	    1.097950E+05	
    2.209921E-03	    2.791166E-02	    4.388143E-02	   -1.000000E+00	    1.844395E-03	    1.640000E-03	    7.900000E+02	    1.362632E-03	    4.618401E-03	    1.112947E+00	    1.098793E+05	
    3.224326E-03	    2.781274E-02	    4.373073E-02	   -1.000000E+00	    1.843602E-03	    1.640000E-03	    7.900000E+02	    1.357344E-03	    4.615352E-03	    1.115807E+00	    1.100209E+05	
    4.319309E-03	    2.766385E-02	    4.350363E-02	   -1.000000E+00	    1.842408E-03	    1.640000E-03	    7.900000E+02	    1.349385E-03	    4.610712E-03	    1.120134E+00	    1.102339E+05	
    5.495817E-03	    2.745435E-02	    4.318382E-02	   -1.000000E+00	    1.840728E-03	    1.640000E-03	    7.900000E+02	    1.338187E-03	    4.604114E-03	    1.126276E+00	    1.105345E+05	
    6.752895E-03	    2.717249E-02	    4.275327E-02	   -1.000000E+00	    1.838469E-03	    1.640000E-03	    7.900000E+02	    1.323128E-03	    4.595124E-03	    1.134651E+00	    1.109416E+05	
    8.087138E-03	    2.680568E-02	    4.219258E-02	   -1.000000E+00	    1.835532E-03	    1.640000E-03	    7.900000E+02	    1.303544E-03	    4.583246E-03	    1.145751E+00	    1.114767E+05	
    9.492135E-03	    2.634096E-02	    4.148171E-02	   -1.000000E+00	    1.831814E-03	    1.640000E-03	    7.900000E+02	    1.278757E-03	    4.567909E-03	    1.160156E+00	    1.121637E+05	
    1.095796E-02	    2.576569E-02	    4.060101E-02	   -1.000000E+00	    1.827217E-03	    1.640000E-03	    7.900000E+02	    1.248114E-03	    4.548474E-03	    1.178547E+00	    1.130290E+05	
    1.247081E-02	    2.506846E-02	    3.953256E-02	   -1.000000E+00	    1.821656E-03	    1.640000E-03	    7.900000E+02	    1.211038E-03	    4.524233E-03	    1.201716E+00	    1.141007E+05	
    1.401288E-02	    2.424024E-02	    3.826195E-02	   -1.000000E+00	    1.815064E-03	    1.640000E-03	    7.900000E+02	    1.167093E-03	    4.494421E-03	    1.230585E+00	    1.154075E+05	
    1.556259E-02	    2.327569E-02	    3.678023E-02	   -1.000000E+00	    1.807408E-03	    1.640000E-03	    7.900000E+02	    1.116053E-03	    4.458230E-03	    1.266221E+00	    1.169781E+05	
    1.709530E-02	    2.217440E-02	    3.508585E-02	   -1.000000E+00	    1.798696E-03	    1.640000E-03	    7.900000E+02	    1.057975E-03	    4.414834E-03	    1.309853E+00	    1.188382E+05	
    1.858453E-02	    2.094208E-02	    3.318647E-02	   -1.000000E+00	    1.788988E-03	    1.640000E-03	    7.900000E+02	    9.932553E-04	    4.363418E-03	    1.362895E+00	    1.210089E+05	
    2.000359E-02	    1.959117E-02	    3.110005E-02	   -1.000000E+00	    1.778399E-03	    1.640000E-03	    7.900000E+02	    9.226609E-04	    4.303214E-03	    1.426965E+00	    1.235028E+05	
    2.132755E-02	    1.814098E-02	    2.885508E-02	   -1.000000E+00	    1.767099E-03	    1.640000E-03	    7.900000E+02	    8.473294E-04	    4.233537E-03	    1.503918E+00	    1.263210E+05	
    2.253524E-02	    1.661700E-02	    2.648966E-02	   -1.000000E+00	    1.755308E-03	    1.640000E-03	    7.900000E+02	    7.687193E-04	    4.153810E-03	    1.595861E+00	    1.294486E+05	
    2.361101E-02	    1.504940E-02	    2.404943E-02	   -1.000000E+00	    1.743278E-03	    1.640000E-03	    7.900000E+02	    6.885199E-04	    4.063583E-03	    1.705185E+00	    1.328519E+05	
    2.454583E-02	    1.347105E-02	    2.158457E-02	   -1.000000E+00	    1.731279E-03	    1.640000E-03	    7.900000E+02	    6.085278E-04	    3.962525E-03	    1.834565E+00	    1.364754E+05	
    2.533773E-02	    1.191506E-02	    1.914627E-02	   -1.000000E+00	    1.719576E-03	    1.640000E-03	    7.900000E+02	    5.305089E-04	    3.850389E-03	    1.986946E+00	    1.402419E+05	
    2.599137E-02	    1.041249E-02	    1.678309E-02	   -1.000000E+00	    1.708410E-03	    1.640000E-03	    7.900000E+02	    4.560672E-04	    3.726960E-03	    2.165461E+00	    1.440559E+05	
    2.651695E-02	    8.990282E-03	    1.453788E-02	   -1.000000E+00	    1.697981E-03	    1.640000E-03	    7.900000E+02	    3.865390E-04	    3.591991E-03	    2.373268E+00	    1.478120E+05	
    2.692858E-02	    7.669888E-03	    1.244541E-02	   -1.000000E+00	    1.688439E-03	    1.640000E-03	    7.900000E+02	    3.229281E-04	    3.445178E-03	    2.613288E+00	    1.514090E+05	
    2.724265E-02	    6.466493E-03	    1.053101E-02	   -1.000000E+00	    1.679883E-03	    1.640000E-03	    7.900000E+02	    2.658834E-04	    3.286234E-03	    2.887854E+00	    1.547681E+05	
    2.747614E-02	    5.388964E-03	    8.810239E-03	   -1.000000E+00	    1.672357E-03	    1.640000E-03	    7.900000E+02	    2.157152E-04	    3.115101E-03	    3.198402E+00	    1.578507E+05	
    2.764533E-02	    4.440300E-03	    7.289418E-03	   -1.000000E+00	    1.665865E-03	    1.640000E-03	    7.900000E+02	    1.724340E-04	    2.932257E-03	    3.545281E+00	    1.606662E+05	
    2.776488E-02	    3.618462E-03	    5.966744E-03	   -1.000000E+00	    1.660370E-03	    1.640000E-03	    7.900000E+02	    1.357995E-04	    2.738927E-03	    3.927647E+00	    1.632648E+05	
    2.784729E-02	    2.917398E-03	    4.833761E-03	   -1.000000E+00	    1.655806E-03	    1.640000E-03	    7.900000E+02	    1.053719E-04	    2.537083E-03	    4.343241E+00	    1.657118E+05	
    2.790275E-02	    2.328129E-03	    3.876959E-03	   -1.000000E+00	    1.652085E-03	    1.640000E-03	    7.900000E+02	    8.056767E-05	    2.329275E-03	    4.787957E+00	    1.680510E+05	
    2.793922E-02	    1.839780E-03	    3.079393E-03	   -1.000000E+00	    1.649107E-03	    1.640000E-03	    7.900000E+02	    6.071465E-05	    2.118356E-03	    5.255017E+00	    1.702611E+05	
    2.796266E-02	    1.440497E-03	    2.422171E-03	   -1.000000E+00	    1.646766E-03	    1.640000E-03	    7.900000E+02	    4.510370E-05	    1.907077E-03	    5.733160E+00	    1.721914E+05	
    2.797741E-02	    1.118209E-03	    1.885691E-03	   -1.000000E+00	    1.644955E-03	    1.640000E-03	    7.900000E+02	    3.303264E-05	    1.697579E-03	    6.202776E+00	    1.734551E+05	
    2.798650E-02	    8.612156E-04	    1.450621E-03	   -1.000000E+00	    1.643576E-03	    1.640000E-03	    7.900000E+02	    2.384075E-05	    1.490807E-03	    6.628149E+00	    1.732454E+05	
    2.799201E-02	    6.586181E-04	    1.098614E-03	   -1.000000E+00	    1.642540E-03	    1.640000E-03	    7.900000E+02	    1.693279E-05	    1.285901E-03	    6.943143E+00	    1.700414E+05	