Title="Fields"
Variables="X""Y""Velocity""Phi""Effective Viscosity""Dynamic Viscosity""Density""Eddy Viscosity""K""Omega""S""F1SST""distance""GEN"
Zone I=52 J=52 F=POINT
   -1.214864E-02	    6.022430E-05	    0.000000E+00	    0.000000E+00	    1.000000E-03	    1.000000E-03	    1.000000E+03	    0.000000E+00	    0.000000E+00	    3.039697E+08	    0.000000E+00	    1.000000E+00	    0.000000E+00	    0.000000E+00	
   -1.214840E-02	    7.587059E-05	    0.000000E+00	    0.000000E+00	    1.000000E-03	    1.000000E-03	    1.000000E+03	    0.000000E+00	    0.000000E+00	    3.039697E+08	    0.000000E+00	    1.000000E+00	    0.000000E+00	    0.000000E+00	
   -1.214760E-02	    1.201162E-04	    0.000000E+00	    0.000000E+00	    1.000000E-03	    1.000000E-03	    1.000000E+03	    0.000000E+00	    0.000000E+00	    1.212788E+08	    0.000000E+00	    1.000000E+00	    0.000000E+00	    0.000000E+00	
   -1.214604E-02	    1.887791E-04	    0.000000E+00	    0.000000E+00	    1.000000E-03	    1.000000E-03	    1.000000E+03	    0.000000E+00	    0.000000E+00	    4.910171E+07	    0.000000E+00	    1.000000E+00	    0.000000E+00	    0.000000E+00	
   -1.214292E-02	    2.931943E-04	    0.000000E+00	    0.000000E+00	    1.000000E-03	    1.000000E-03	    1.000000E+03	    0.000000E+00	    0.000000E+00	    2.035722E+07	    0.000000E+00	    1.000000E+00	    0.000000E+00	    0.000000E+00	
   -1.213664E-02	    4.481479E-04	    0.000000E+00	    0.000000E+00	    1.000000E-03	    1.000000E-03	    1.000000E+03	    0.000000E+00	    0.000000E+00	    8.714137E+06	    0.000000E+00	    1.000000E+00	    0.000000E+00	    0.000000E+00	
   -1.212408E-02	    6.717413E-04	    0.000000E+00	    0.000000E+00	    1.000000E-03	    1.000000E-03	    1.000000E+03	    0.000000E+00	    0.000000E+00	    3.878976E+06	    0.000000E+00	    1.000000E+00	    0.000000E+00	    0.000000E+00	
   -1.209956E-02	    9.844691E-04	    0.000000E+00	    0.000000E+00	    1.000000E-03	    1.000000E-03	    1.000000E+03	    0.000000E+00	    0.000000E+00	    1.806312E+06	    0.000000E+00	    1.000000E+00	    0.000000E+00	    0.000000E+00	
   -1.205344E-02	    1.407248E-03	    0.000000E+00	    0.000000E+00	    1.000000E-03	    1.000000E-03	    1.000000E+03	    0.000000E+00	    0.000000E+00	    8.842159E+05	    0.000000E+00	    1.000000E+00	    0.000000E+00	    0.000000E+00	
   -1.197068E-02	    1.958259E-03	    0.000000E+00	    0.000000E+00	    1.000000E-03	    1.000000E-03	    1.000000E+03	    0.000000E+00	    0.000000E+00	    4.567661E+05	    0.000000E+00	    1.000000E+00	    0.000000E+00	    0.000000E+00	
   -1.182998E-02	    2.648730E-03	    0.000000E+00	    0.000000E+00	    1.000000E-03	    1.000000E-03	    1.000000E+03	    0.000000E+00	    0.000000E+00	    2.497647E+05	    0.000000E+00	    1.000000E+00	    0.000000E+00	    0.000000E+00	
   -1.160451E-02	    3.478208E-03	    0.000000E+00	    0.000000E+00	    1.000000E-03	    1.000000E-03	    1.000000E+03	    0.000000E+00	    0.000000E+00	    1.449153E+05	    0.000000E+00	    1.000000E+00	    0.000000E+00	    0.000000E+00	
   -1.126508E-02	    4.430482E-03	    0.000000E+00	    0.000000E+00	    1.000000E-03	    1.000000E-03	    1.000000E+03	    0.000000E+00	    0.000000E+00	    8.937269E+04	    0.000000E+00	    1.000000E+00	    0.000000E+00	    0.000000E+00	
   -1.078595E-02	    5.471869E-03	    0.000000E+00	    0.000000E+00	    1.000000E-03	    1.000000E-03	    1.000000E+03	    0.000000E+00	    0.000000E+00	    5.864269E+04	    0.000000E+00	    1.000000E+00	    0.000000E+00	    0.000000E+00	
   -1.015216E-02	    6.553542E-03	    0.000000E+00	    0.000000E+00	    1.000000E-03	    1.000000E-03	    1.000000E+03	    0.000000E+00	    0.000000E+00	    4.093143E+04	    0.000000E+00	    1.000000E+00	    0.000000E+00	    0.000000E+00	
   -9.365676E-03	    7.618437E-03	    0.000000E+00	    0.000000E+00	    1.000000E-03	    1.000000E-03	    1.000000E+03	    0.000000E+00	    0.000000E+00	    3.033912E+04	    0.000000E+00	    1.000000E+00	    0.000000E+00	    0.000000E+00	
   -8.447592E-03	    8.611236E-03	    0.000000E+00	    0.000000E+00	    1.000000E-03	    1.000000E-03	    1.000000E+03	    0.000000E+00	    0.000000E+00	    2.379992E+04	    0.000000E+00	    1.000000E+00	    0.000000E+00	    0.000000E+00	
   -7.434908E-03	    9.488112E-03	    0.000000E+00	    0.000000E+00	    1.000000E-03	    1.000000E-03	    1.000000E+03	    0.000000E+00	    0.000000E+00	    1.965745E+04	    0.000000E+00	    1.000000E+00	    0.000000E+00	    0.000000E+00	
   -6.373132E-03	    1.022286E-02	    0.000000E+00	    0.000000E+00	    1.000000E-03	    1.000000E-03	    1.000000E+03	    0.000000E+00	    0.000000E+00	    1.698298E+04	    0.000000E+00	    1.000000E+00	    0.000000E+00	    0.000000E+00	
   -5.307702E-03	    1.080785E-02	    0.000000E+00	    0.000000E+00	    1.000000E-03	    1.000000E-03	    1.000000E+03	    0.000000E+00	    0.000000E+00	    1.523698E+04	    0.000000E+00	    1.000000E+00	    0.000000E+00	    0.000000E+00	
   -4.277189E-03	    1.125075E-02	    0.000000E+00	    0.000000E+00	    1.000000E-03	    1.000000E-03	    1.000000E+03	    0.000000E+00	    0.000000E+00	    1.409511E+04	    0.000000E+00	    1.000000E+00	    0.000000E+00	    0.000000E+00	
   -3.309761E-03	    1.156901E-02	    0.000000E+00	    0.000000E+00	    1.000000E-03	    1.000000E-03	    1.000000E+03	    0.000000E+00	    0.000000E+00	    1.335577E+04	    0.000000E+00	    1.000000E+00	    0.000000E+00	    0.000000E+00	
   -2.422724E-03	    1.178450E-02	    0.000000E+00	    0.000000E+00	    1.000000E-03	    1.000000E-03	    1.000000E+03	    0.000000E+00	    0.000000E+00	    1.288948E+04	    0.000000E+00	    1.000000E+00	    0.000000E+00	    0.000000E+00	
   -1.624046E-03	    1.191947E-02	    0.000000E+00	    0.000000E+00	    1.000000E-03	    1.000000E-03	    1.000000E+03	    0.000000E+00	    0.000000E+00	    1.261049E+04	    0.000000E+00	    1.000000E+00	    0.000000E+00	    0.000000E+00	
   -9.147101E-04	    1.199402E-02	    0.000000E+00	    0.000000E+00	    1.000000E-03	    1.000000E-03	    1.000000E+03	    0.000000E+00	    0.000000E+00	    1.246050E+04	    0.000000E+00	    1.000000E+00	    0.000000E+00	    0.000000E+00	
   -2.910617E-04	    1.202501E-02	    0.000000E+00	    0.000000E+00	    1.000000E-03	    1.000000E-03	    1.000000E+03	    0.000000E+00	    0.000000E+00	    1.239897E+04	    0.000000E+00	    1.000000E+00	    0.000000E+00	    0.000000E+00	
    2.910617E-04	    1.202501E-02	    0.000000E+00	    0.000000E+00	    1.000000E-03	    1.000000E-03	    1.000000E+03	    0.000000E+00	    0.000000E+00	    1.239897E+04	    0.000000E+00	    1.000000E+00	    0.000000E+00	    0.000000E+00	
    9.147101E-04	    1.199402E-02	    0.000000E+00	    0.000000E+00	    1.000000E-03	    1.000000E-03	    1.000000E+03	    0.000000E+00	    0.000000E+00	    1.246050E+04	    0.000000E+00	    1.000000E+00	    0.000000E+00	    0.000000E+00	
    1.624046E-03	    1.191947E-02	    0.000000E+00	    0.000000E+00	    1.000000E-03	    1.000000E-03	    1.000000E+03	    0.000000E+00	    0.000000E+00	    1.261049E+04	    0.000000E+00	    1.000000E+00	    0.000000E+00	    0.000000E+00	
    2.422724E-03	    1.178450E-02	    0.000000E+00	    0.000000E+00	    1.000000E-03	    1.000000E-03	    1.000000E+03	    0.000000E+00	    0.000000E+00	    1.288948E+04	    0.000000E+00	    1.000000E+00	    0.000000E+00	    0.000000E+00	
    3.309761E-03	    1.156901E-02	    0.000000E+00	    0.000000E+00	    1.000000E-03	    1.000000E-03	    1.000000E+03	    0.000000E+00	    0.000000E+00	    1.335577E+04	    0.000000E+00	    1.000000E+00	    0.000000E+00	    0.000000E+00	
    4.277189E-03	    1.125075E-02	    0.000000E+00	    0.000000E+00	    1.000000E-03	    1.000000E-03	    1.000000E+03	    0.000000E+00	    0.000000E+00	    1.409511E+04	    0.000000E+00	    1.000000E+00	    0.000000E+00	    0.000000E+00	
    5.307702E-03	    1.080785E-02	    0.000000E+00	    0.000000E+00	    1.000000E-03	    1.000000E-03	    1.000000E+03	    0.000000E+00	    0.000000E+00	    1.523698E+04	    0.000000E+00	    1.000000E+00	    0.000000E+00	    0.000000E+00	
    6.373132E-03	    1.022286E-02	    0.000000E+00	    0.000000E+00	    1.000000E-03	    1.000000E-03	    1.000000E+03	    0.000000E+00	    0.000000E+00	    1.698298E+04	    0.000000E+00	    1.000000E+00	    0.000000E+00	    0.000000E+00	
    7.434908E-03	    9.488112E-03	    0.000000E+00	    0.000000E+00	    1.000000E-03	    1.000000E-03	    1.000000E+03	    0.000000E+00	    0.000000E+00	    1.965745E+04	    0.000000E+00	    1.000000E+00	    0.000000E+00	    0.000000E+00	
    8.447592E-03	    8.611236E-03	    0.000000E+00	    0.000000E+00	    1.000000E-03	    1.000000E-03	    1.000000E+03	    0.000000E+00	    0.000000E+00	    2.379992E+04	    0.000000E+00	    1.000000E+00	    0.000000E+00	    0.000000E+00	
    9.365676E-03	    7.618437E-03	    0.000000E+00	    0.000000E+00	    1.000000E-03	    1.000000E-03	    1.000000E+03	    0.000000E+00	    0.000000E+00	    3.033912E+04	    0.000000E+00	    1.000000E+00	    0.000000E+00	    0.000000E+00	
    1.015216E-02	    6.553542E-03	    0.000000E+00	    0.000000E+00	    1.000000E-03	    1.000000E-03	    1.000000E+03	    0.000000E+00	    0.000000E+00	    4.093143E+04	    0.000000E+00	    1.000000E+00	    0.000000E+00	    0.000000E+00	
    1.078595E-02	    5.471869E-03	    0.000000E+00	    0.000000E+00	    1.000000E-03	    1.000000E-03	    1.000000E+03	    0.000000E+00	    0.000000E+00	    5.864269E+04	    0.000000E+00	    1.000000E+00	    0.000000E+00	    0.000000E+00	
    1.126508E-02	    4.430482E-03	    0.000000E+00	    0.000000E+00	    1.000000E-03	    1.000000E-03	    1.000000E+03	    0.000000E+00	    0.000000E+00	    8.937269E+04	    0.000000E+00	    1.000000E+00	    0.000000E+00	    0.000000E+00	
    1.160451E-02	    3.478208E-03	    0.000000E+00	    0.000000E+00	    1.000000E-03	    1.000000E-03	    1.000000E+03	    0.000000E+00	    0.000000E+00	    1.449153E+05	    0.000000E+00	    1.000000E+00	    0.000000E+00	    0.000000E+00	
    1.182998E-02	    2.648730E-03	    0.000000E+00	    0.000000E+00	    1.000000E-03	    1.000000E-03	    1.000000E+03	    0.000000E+00	    0.000000E+00	    2.497647E+05	    0.000000E+00	    1.000000E+00	    0.000000E+00	    0.000000E+00	
    1.197068E-02	    1.958259E-03	    0.000000E+00	    0.000000E+00	    1.000000E-03	    1.000000E-03	    1.000000E+03	    0.000000E+00	    0.000000E+00	    4.567661E+05	    0.000000E+00	    1.000000E+00	    0.000000E+00	    0.000000E+00	
    1.205344E-02	    1.407248E-03	    0.000000E+00	    0.000000E+00	    1.000000E-03	    1.000000E-03	    1.000000E+03	    0.000000E+00	    0.000000E+00	    8.842159E+05	    0.000000E+00	    1.000000E+00	    0.000000E+00	    0.000000E+00	
    1.209956E-02	    9.844691E-04	    0.000000E+00	    0.000000E+00	    1.000000E-03	    1.000000E-03	    1.000000E+03	    0.000000E+00	    0.000000E+00	    1.806312E+06	    0.000000E+00	    1.000000E+00	    0.000000E+00	    0.000000E+00	
    1.212408E-02	    6.717413E-04	    0.000000E+00	    0.000000E+00	    1.000000E-03	    1.000000E-03	    1.000000E+03	    0.000000E+00	    0.000000E+00	    3.878976E+06	    0.000000E+00	    1.000000E+00	    0.000000E+00	    0.000000E+00	
    1.213664E-02	    4.481479E-04	    0.000000E+00	    0.000000E+00	    1.000000E-03	    1.000000E-03	    1.000000E+03	    0.000000E+00	    0.000000E+00	    8.714137E+06	    0.000000E+00	    1.000000E+00	    0.000000E+00	    0.000000E+00	
    1.214292E-02	    2.931943E-04	    0.000000E+00	    0.000000E+00	    1.000000E-03	    1.000000E-03	    1.000000E+03	    0.000000E+00	    0.000000E+00	    2.035722E+07	    0.000000E+00	    1.000000E+00	    0.000000E+00	    0.000000E+00	
    1.214604E-02	    1.887791E-04	    0.000000E+00	    0.000000E+00	    1.000000E-03	    1.000000E-03	    1.000000E+03	    0.000000E+00	    0.000000E+00	    4.910171E+07	    0.000000E+00	    1.000000E+00	    0.000000E+00	    0.000000E+00	
    1.214760E-02	    1.201162E-04	    0.000000E+00	    0.000000E+00	    1.000000E-03	    1.000000E-03	    1.000000E+03	    0.000000E+00	    0.000000E+00	    1.212788E+08	    0.000000E+00	    1.000000E+00	    0.000000E+00	    0.000000E+00	
    1.214840E-02	    7.587059E-05	    0.000000E+00	    0.000000E+00	    1.000000E-03	    1.000000E-03	    1.000000E+03	    0.000000E+00	    0.000000E+00	    3.039697E+08	    0.000000E+00	    1.000000E+00	    0.000000E+00	    0.000000E+00	
    1.214864E-02	    6.022430E-05	    0.000000E+00	    0.000000E+00	    1.000000E-03	    1.000000E-03	    1.000000E+03	    0.000000E+00	    0.000000E+00	    0.000000E+00	    0.000000E+00	    1.000000E+00	    0.000000E+00	    0.000000E+00	
   -1.214823E-02	    6.021683E-05	    0.000000E+00	    0.000000E+00	    1.000000E-03	    1.000000E-03	    1.000000E+03	    0.000000E+00	    0.000000E+00	    0.000000E+00	    0.000000E+00	    1.000000E+00	    0.000000E+00	    0.000000E+00	
   -1.214788E-02	    7.586052E-05	    2.800493E-04	   -1.000000E+00	    1.000000E-03	    1.000000E-03	    1.000000E+03	    4.147732E-14	    1.260785E-08	    3.039697E+08	    2.981318E+05	    1.000000E+00	    5.130147E-07	    1.596144E+02	
   -1.214679E-02	    1.200973E-04	    8.989737E-04	   -1.000000E+00	    1.000000E-03	    1.000000E-03	    1.000000E+03	    2.197664E-13	    2.665302E-08	    1.212788E+08	    1.224855E+06	    1.000000E+00	    8.121804E-07	    2.972296E+02	
   -1.214476E-02	    1.887422E-04	    1.711278E-03	   -1.000000E+00	    1.000000E-03	    1.000000E-03	    1.000000E+03	    1.991162E-12	    9.776948E-08	    4.910171E+07	    1.796754E+06	    1.000000E+00	    1.276429E-06	    4.387384E+02	
   -1.214094E-02	    2.931200E-04	    2.866412E-03	   -1.000000E+00	    1.000000E-03	    1.000000E-03	    1.000000E+03	    1.379547E-11	    2.808375E-07	    2.035722E+07	    2.089693E+06	    1.000000E+00	    1.982375E-06	    5.163826E+02	
   -1.213361E-02	    4.479957E-04	    4.503374E-03	   -1.000000E+00	    1.000000E-03	    1.000000E-03	    1.000000E+03	    8.236819E-11	    7.177677E-07	    8.714137E+06	    2.207431E+06	    1.000000E+00	    3.029932E-06	    5.551893E+02	
   -1.211955E-02	    6.714295E-04	    6.781616E-03	   -1.000000E+00	    1.000000E-03	    1.000000E-03	    1.000000E+03	    4.411231E-10	    1.711106E-06	    3.878976E+06	    2.227507E+06	    1.000000E+00	    4.541366E-06	    5.746131E+02	
   -1.209293E-02	    9.838410E-04	    9.893192E-03	   -1.000000E+00	    1.000000E-03	    1.000000E-03	    1.000000E+03	    2.160643E-09	    3.902794E-06	    1.806312E+06	    2.206392E+06	    1.000000E+00	    6.655010E-06	    5.895269E+02	
   -1.204401E-02	    1.406019E-03	    1.402304E-02	   -1.000000E+00	    1.000002E-03	    1.000000E-03	    1.000000E+03	    9.705015E-09	    8.581329E-06	    8.842159E+05	    2.168449E+06	    1.000000E+00	    9.511874E-06	    6.065464E+02	
   -1.195765E-02	    1.955950E-03	    1.931071E-02	   -1.000000E+00	    1.000009E-03	    1.000000E-03	    1.000000E+03	    3.974624E-08	    1.815473E-05	    4.567661E+05	    2.121960E+06	    1.000000E+00	    1.323424E-05	    6.275836E+02	
   -1.181256E-02	    2.644593E-03	    2.583926E-02	   -1.000000E+00	    1.000032E-03	    1.000000E-03	    1.000000E+03	    1.473389E-07	    3.680004E-05	    2.497647E+05	    2.073751E+06	    1.000000E+00	    1.789713E-05	    6.537536E+02	
   -1.158209E-02	    3.471175E-03	    3.366468E-02	   -1.000000E+00	    1.000109E-03	    1.000000E-03	    1.000000E+03	    4.945116E-07	    7.166228E-05	    1.449153E+05	    2.034561E+06	    1.000000E+00	    2.349639E-05	    6.895950E+02	
   -1.123737E-02	    4.419185E-03	    4.244541E-02	   -1.000000E+00	    1.000320E-03	    1.000000E-03	    1.000000E+03	    1.456125E-06	    1.301378E-04	    8.937269E+04	    1.976635E+06	    1.000000E+00	    2.992139E-05	    7.225132E+02	
   -1.075321E-02	    5.454763E-03	    5.221160E-02	   -1.000000E+00	    1.000842E-03	    1.000000E-03	    1.000000E+03	    3.825905E-06	    2.243613E-04	    5.864269E+04	    1.923375E+06	    1.000000E+00	    3.694375E-05	    7.654834E+02	
   -1.011527E-02	    6.529136E-03	    6.226218E-02	   -1.000000E+00	    1.001918E-03	    1.000000E-03	    1.000000E+03	    8.716348E-06	    3.567726E-04	    4.093143E+04	    1.843527E+06	    1.000000E+00	    4.423348E-05	    8.029614E+02	
   -9.326135E-03	    7.585587E-03	    7.206577E-02	   -1.000000E+00	    1.003836E-03	    1.000000E-03	    1.000000E+03	    1.743525E-05	    5.289702E-04	    3.033912E+04	    1.744275E+06	    1.000000E+00	    5.140587E-05	    8.379073E+02	
   -8.407302E-03	    8.569391E-03	    8.144009E-02	   -1.000000E+00	    1.006832E-03	    1.000000E-03	    1.000000E+03	    3.105408E-05	    7.390847E-04	    2.379992E+04	    1.652078E+06	    1.000000E+00	    5.808887E-05	    8.765491E+02	
   -7.395856E-03	    9.437422E-03	    8.992489E-02	   -1.000000E+00	    1.010794E-03	    1.000000E-03	    1.000000E+03	    4.906363E-05	    9.644658E-04	    1.965745E+04	    1.574227E+06	    1.000000E+00	    6.398848E-05	    9.111640E+02	
   -6.337080E-03	    1.016411E-02	    9.716376E-02	   -1.000000E+00	    1.015270E-03	    1.000000E-03	    1.000000E+03	    6.940857E-05	    1.178765E-03	    1.698298E+04	    1.512961E+06	    1.000000E+00	    6.892962E-05	    9.379568E+02	
   -5.275969E-03	    1.074227E-02	    1.029892E-01	   -1.000000E+00	    1.019680E-03	    1.000000E-03	    1.000000E+03	    8.945494E-05	    1.363023E-03	    1.523698E+04	    1.467001E+06	    1.000000E+00	    7.286231E-05	    9.567845E+02	
   -4.250575E-03	    1.117974E-02	    1.074254E-01	   -1.000000E+00	    1.023553E-03	    1.000000E-03	    1.000000E+03	    1.070590E-04	    1.509008E-03	    1.409511E+04	    1.433894E+06	    1.000000E+00	    7.583887E-05	    9.692721E+02	
   -3.288589E-03	    1.149396E-02	    1.106229E-01	   -1.000000E+00	    1.026631E-03	    1.000000E-03	    1.000000E+03	    1.210507E-04	    1.616726E-03	    1.335577E+04	    1.410995E+06	    1.000000E+00	    7.797729E-05	    9.772460E+02	
   -2.406939E-03	    1.170666E-02	    1.127911E-01	   -1.000000E+00	    1.028858E-03	    1.000000E-03	    1.000000E+03	    1.311749E-04	    1.690776E-03	    1.288948E+04	    1.395900E+06	    1.000000E+00	    7.942503E-05	    9.821549E+02	
   -1.613344E-03	    1.183985E-02	    1.141495E-01	   -1.000000E+00	    1.030313E-03	    1.000000E-03	    1.000000E+03	    1.377847E-04	    1.737533E-03	    1.261049E+04	    1.386601E+06	    1.000000E+00	    8.033169E-05	    9.850163E+02	
   -9.086451E-04	    1.191341E-02	    1.148989E-01	   -1.000000E+00	    1.031135E-03	    1.000000E-03	    1.000000E+03	    1.415225E-04	    1.763442E-03	    1.246050E+04	    1.381497E+06	    1.000000E+00	    8.083244E-05	    9.865104E+02	
   -2.891269E-04	    1.194400E-02	    1.152083E-01	   -1.000000E+00	    1.031480E-03	    1.000000E-03	    1.000000E+03	    1.430899E-04	    1.774167E-03	    1.239897E+04	    1.379344E+06	    1.000000E+00	    8.104063E-05	    9.870796E+02	
    2.891269E-04	    1.194400E-02	    1.152083E-01	   -1.000000E+00	    1.031480E-03	    1.000000E-03	    1.000000E+03	    1.430899E-04	    1.774167E-03	    1.239897E+04	    1.379344E+06	    1.000000E+00	    8.104063E-05	    9.870796E+02	
    9.086451E-04	    1.191341E-02	    1.148989E-01	   -1.000000E+00	    1.031135E-03	    1.000000E-03	    1.000000E+03	    1.415225E-04	    1.763442E-03	    1.246050E+04	    1.381497E+06	    1.000000E+00	    8.083244E-05	    9.865104E+02	
    1.613344E-03	    1.183985E-02	    1.141495E-01	   -1.000000E+00	    1.030313E-03	    1.000000E-03	    1.000000E+03	    1.377847E-04	    1.737533E-03	    1.261049E+04	    1.386601E+06	    1.000000E+00	    8.033169E-05	    9.850163E+02	
    2.406939E-03	    1.170666E-02	    1.127911E-01	   -1.000000E+00	    1.028858E-03	    1.000000E-03	    1.000000E+03	    1.311749E-04	    1.690776E-03	    1.288948E+04	    1.395900E+06	    1.000000E+00	    7.942503E-05	    9.821549E+02	
    3.288589E-03	    1.149396E-02	    1.106229E-01	   -1.000000E+00	    1.026631E-03	    1.000000E-03	    1.000000E+03	    1.210507E-04	    1.616726E-03	    1.335577E+04	    1.410995E+06	    1.000000E+00	    7.797729E-05	    9.772460E+02	
    4.250575E-03	    1.117974E-02	    1.074254E-01	   -1.000000E+00	    1.023553E-03	    1.000000E-03	    1.000000E+03	    1.070590E-04	    1.509008E-03	    1.409511E+04	    1.433894E+06	    1.000000E+00	    7.583887E-05	    9.692721E+02	
    5.275969E-03	    1.074227E-02	    1.029892E-01	   -1.000000E+00	    1.019680E-03	    1.000000E-03	    1.000000E+03	    8.945494E-05	    1.363023E-03	    1.523698E+04	    1.467001E+06	    1.000000E+00	    7.286231E-05	    9.567845E+02	
    6.337080E-03	    1.016411E-02	    9.716376E-02	   -1.000000E+00	    1.015270E-03	    1.000000E-03	    1.000000E+03	    6.940857E-05	    1.178765E-03	    1.698298E+04	    1.512961E+06	    1.000000E+00	    6.892962E-05	    9.379568E+02	
    7.395856E-03	    9.437422E-03	    8.992489E-02	   -1.000000E+00	    1.010794E-03	    1.000000E-03	    1.000000E+03	    4.906363E-05	    9.644658E-04	    1.965745E+04	    1.574227E+06	    1.000000E+00	    6.398848E-05	    9.111640E+02	
    8.407302E-03	    8.569391E-03	    8.144009E-02	   -1.000000E+00	    1.006832E-03	    1.000000E-03	    1.000000E+03	    3.105408E-05	    7.390847E-04	    2.379992E+04	    1.652078E+06	    1.000000E+00	    5.808887E-05	    8.765491E+02	
    9.326135E-03	    7.585587E-03	    7.206577E-02	   -1.000000E+00	    1.003836E-03	    1.000000E-03	    1.000000E+03	    1.743525E-05	    5.289702E-04	    3.033912E+04	    1.744275E+06	    1.000000E+00	    5.140587E-05	    8.379073E+02	
    1.011527E-02	    6.529136E-03	    6.226218E-02	   -1.000000E+00	    1.001918E-03	    1.000000E-03	    1.000000E+03	    8.716348E-06	    3.567726E-04	    4.093143E+04	    1.843527E+06	    1.000000E+00	    4.423348E-05	    8.029614E+02	
    1.075321E-02	    5.454763E-03	    5.221160E-02	   -1.000000E+00	    1.000842E-03	    1.000000E-03	    1.000000E+03	    3.825905E-06	    2.243613E-04	    5.864269E+04	    1.923375E+06	    1.000000E+00	    3.694375E-05	    7.654834E+02	
    1.123737E-02	    4.419185E-03	    4.244541E-02	   -1.000000E+00	    1.000320E-03	    1.000000E-03	    1.000000E+03	    1.456125E-06	    1.301378E-04	    8.937269E+04	    1.976635E+06	    1.000000E+00	    2.992139E-05	    7.225132E+02	
    1.158209E-02	    3.471175E-03	    3.366468E-02	   -1.000000E+00	    1.000109E-03	    1.000000E-03	    1.000000E+03	    4.945116E-07	    7.166228E-05	    1.449153E+05	    2.034561E+06	    1.000000E+00	    2.349639E-05	    6.895950E+02	
    1.181256E-02	    2.644593E-03	    2.583926E-02	   -1.000000E+00	    1.000032E-03	    1.000000E-03	    1.000000E+03	    1.473389E-07	    3.680004E-05	    2.497647E+05	    2.073751E+06	    1.000000E+00	    1.789713E-05	    6.537536E+02	
    1.195765E-02	    1.955950E-03	    1.931071E-02	   -1.000000E+00	    1.000009E-03	    1.000000E-03	    1.000000E+03	    3.974624E-08	    1.815473E-05	    4.567661E+05	    2.121960E+06	    1.000000E+00	    1.323424E-05	    6.275836E+02	
    1.204401E-02	    1.406019E-03	    1.402304E-02	   -1.000000E+00	    1.000002E-03	    1.000000E-03	    1.000000E+03	    9.705015E-09	    8.581329E-06	    8.842159E+05	    2.168449E+06	    1.000000E+00	    9.511874E-06	    6.065464E+02	
    1.209293E-02	    9.838410E-04	    9.893192E-03	   -1.000000E+00	    1.000000E-03	    1.000000E-03	    1.000000E+03	    2.160643E-09	    3.902794E-06	    1.806312E+06	    2.206392E+06	    1.000000E+00	    6.655010E-06	    5.895269E+02	
    1.211955E-02	    6.714295E-04	    6.781616E-03	   -1.000000E+00	    1.000000E-03	    1.000000E-03	    1.000000E+03	    4.411231E-10	    1.711106E-06	    3.878976E+06	    2.227507E+06	    1.000000E+00	    4.541366E-06	    5.746131E+02	
    1.213361E-02	    4.479957E-04	    4.503374E-03	   -1.000000E+00	    1.000000E-03	    1.000000E-03	    1.000000E+03	    8.236819E-11	    7.177677E-07	    8.714137E+06	    2.207431E+06	    1.000000E+00	    3.029932E-06	    5.551893E+02	
    1.214094E-02	    2.931200E-04	    2.866412E-03	   -1.000000E+00	    1.000000E-03	    1.000000E-03	    1.000000E+03	    1.379547E-11	    2.808375E-07	    2.035722E+07	    2.089693E+06	    1.000000E+00	    1.982375E-06	    5.163826E+02	
    1.214476E-02	    1.887422E-04	    1.711278E-03	   -1.000000E+00	    1.000000E-03	    1.000000E-03	    1.000000E+03	    1.991162E-12	    9.776948E-08	    4.910171E+07	    1.796754E+06	    1.000000E+00	    1.276429E-06	    4.387384E+02	
    1.214679E-02	    1.200973E-04	    8.989737E-04	   -1.000000E+00	    1.000000E-03	    1.000000E-03	    1.000000E+03	    2.197664E-13	    2.665302E-08	    1.212788E+08	    1.224855E+06	    1.000000E+00	    8.121804E-07	    2.972296E+02	
    1.214788E-02	    7.586052E-05	    2.800493E-04	   -1.000000E+00	    1.000000E-03	    1.000000E-03	    1.000000E+03	    4.147732E-14	    1.260785E-08	    3.039697E+08	    2.981318E+05	    1.000000E+00	    5.130147E-07	    1.596144E+02	
    1.214823E-02	    6.021683E-05	    0.000000E+00	    0.000000E+00	    1.000000E-03	    1.000000E-03	    1.000000E+03	    0.000000E+00	    0.000000E+00	    3.267915E+05	    0.000000E+00	    1.000000E+00	    0.000000E+00	    0.000000E+00	
   -1.214729E-02	    6.018900E-05	    0.000000E+00	    0.000000E+00	    1.000000E-03	    1.000000E-03	    1.000000E+03	    0.000000E+00	    0.000000E+00	    3.267915E+05	    0.000000E+00	    1.000000E+00	    0.000000E+00	    0.000000E+00	
   -1.214670E-02	    7.582392E-05	    9.278389E-04	   -1.000000E+00	    1.000000E-03	    1.000000E-03	    1.000000E+03	    7.292771E-10	    2.383215E-07	    3.267915E+05	    3.005744E+05	    1.000000E+00	    1.700203E-06	    2.471791E+00	
   -1.214491E-02	    1.200325E-04	    2.978605E-03	   -1.000000E+00	    1.000000E-03	    1.000000E-03	    1.000000E+03	    4.156042E-13	    7.331361E-09	    1.764025E+07	    1.225313E+06	    1.000000E+00	    2.691603E-06	    5.092454E-07	
   -1.214181E-02	    1.886237E-04	    5.669645E-03	   -1.000000E+00	    1.000000E-03	    1.000000E-03	    1.000000E+03	    6.616863E-12	    4.727522E-08	    7.144658E+06	    1.796192E+06	    1.000000E+00	    4.229957E-06	    1.188516E-05	
   -1.213636E-02	    2.928967E-04	    9.495479E-03	   -1.000000E+00	    1.000000E-03	    1.000000E-03	    1.000000E+03	    8.336169E-11	    2.469638E-07	    2.962557E+06	    2.088370E+06	    1.000000E+00	    6.568948E-06	    1.740901E-04	
   -1.212662E-02	    4.475651E-04	    1.491498E-02	   -1.000000E+00	    1.000000E-03	    1.000000E-03	    1.000000E+03	    8.244031E-10	    1.045697E-06	    1.268429E+06	    2.205195E+06	    1.000000E+00	    1.003921E-05	    1.817969E-03	
   -1.210908E-02	    6.705914E-04	    2.245307E-02	   -1.000000E+00	    1.000002E-03	    1.000000E-03	    1.000000E+03	    6.869862E-09	    3.880083E-06	    5.647978E+05	    2.223992E+06	    1.000000E+00	    1.504495E-05	    1.527851E-02	
   -1.207763E-02	    9.822180E-04	    3.273967E-02	   -1.000000E+00	    1.000011E-03	    1.000000E-03	    1.000000E+03	    4.981375E-08	    1.310683E-05	    2.631168E+05	    2.200859E+06	    1.000000E+00	    2.204275E-05	    1.096330E-01	
   -1.202224E-02	    1.402938E-03	    4.637590E-02	   -1.000000E+00	    1.000069E-03	    1.000000E-03	    1.000000E+03	    3.144331E-07	    4.051789E-05	    1.288601E+05	    2.158496E+06	    1.000000E+00	    3.149672E-05	    6.787027E-01	
   -1.192760E-02	    1.950285E-03	    6.380223E-02	   -1.000000E+00	    1.000377E-03	    1.000000E-03	    1.000000E+03	    1.715582E-06	    1.142281E-04	    6.658271E+04	    2.097947E+06	    1.000000E+00	    4.380714E-05	    3.599199E+00	
   -1.177247E-02	    2.634602E-03	    8.524309E-02	   -1.000000E+00	    1.001771E-03	    1.000000E-03	    1.000000E+03	    8.048021E-06	    2.927888E-04	    3.638022E+04	    2.002850E+06	    1.000000E+00	    5.921575E-05	    1.611898E+01	
   -1.153055E-02	    3.454397E-03	    1.107306E-01	   -1.000000E+00	    1.007201E-03	    1.000000E-03	    1.000000E+03	    3.272984E-05	    6.890165E-04	    2.105163E+04	    1.847507E+06	    1.000000E+00	    7.770067E-05	    6.046862E+01	
   -1.117378E-02	    4.392487E-03	    1.386867E-01	   -1.000000E+00	    1.024078E-03	    1.000000E-03	    1.000000E+03	    1.094468E-04	    1.417754E-03	    1.295383E+04	    1.616388E+06	    1.000000E+00	    9.888753E-05	    1.769084E+02	
   -1.067819E-02	    5.414629E-03	    1.681673E-01	   -1.000000E+00	    1.066782E-03	    1.000000E-03	    1.000000E+03	    3.035529E-04	    2.592599E-03	    8.540849E+03	    1.376691E+06	    1.000000E+00	    1.220149E-04	    4.178986E+02	
   -1.003092E-02	    6.472204E-03	    1.956507E-01	   -1.000000E+00	    1.146567E-03	    1.000000E-03	    1.000000E+03	    6.662151E-04	    4.051058E-03	    6.080706E+03	    1.163421E+06	    1.000000E+00	    1.459906E-04	    7.750884E+02	
   -9.235913E-03	    7.509312E-03	    2.188661E-01	   -1.000000E+00	    1.265041E-03	    1.000000E-03	    1.000000E+03	    1.204734E-03	    5.619871E-03	    4.664823E+03	    9.835960E+05	    1.000000E+00	    1.695485E-04	    1.184971E+03	
   -8.315535E-03	    8.472593E-03	    2.377260E-01	   -1.000000E+00	    1.413910E-03	    1.000000E-03	    1.000000E+03	    1.881411E-03	    7.176866E-03	    3.814618E+03	    8.357655E+05	    1.000000E+00	    1.914705E-04	    1.572419E+03	
   -7.307050E-03	    9.320514E-03	    2.524436E-01	   -1.000000E+00	    1.572407E-03	    1.000000E-03	    1.000000E+03	    2.601851E-03	    8.538242E-03	    3.281603E+03	    7.220447E+05	    1.000000E+00	    2.108000E-04	    1.878653E+03	
   -6.255204E-03	    1.002892E-02	    2.636246E-01	   -1.000000E+00	    1.721016E-03	    1.000000E-03	    1.000000E+03	    3.277344E-03	    9.621792E-03	    2.935851E+03	    6.389024E+05	    1.000000E+00	    2.269729E-04	    2.093903E+03	
   -5.203978E-03	    1.059161E-02	    2.718985E-01	   -1.000000E+00	    1.847524E-03	    1.000000E-03	    1.000000E+03	    3.852381E-03	    1.042972E-02	    2.707345E+03	    5.801794E+05	    1.000000E+00	    2.398345E-04	    2.235072E+03	