Title="Fields"
Variables="X""Y""Velocity""Phi""Effective Viscosity""Dynamic Viscosity""Density""Eddy Viscosity""K""Omega""S"
Zone I=52 J=52 F=POINT
   -1.255086E-02	    6.153651E-05	    0.000000E+00	   -1.000000E+00	    1.200000E-02	    1.200000E-02	    8.750000E+02	    0.000000E+00	    0.000000E+00	    0.000000E+00	    0.000000E+00	
   -1.254838E-02	    7.750994E-05	    0.000000E+00	   -1.000000E+00	    1.200000E-02	    1.200000E-02	    8.750000E+02	    0.000000E+00	    0.000000E+00	    0.000000E+00	    0.000000E+00	
   -1.254126E-02	    1.226500E-04	    0.000000E+00	   -1.000000E+00	    1.200000E-02	    1.200000E-02	    8.750000E+02	    0.000000E+00	    0.000000E+00	    0.000000E+00	    0.000000E+00	
   -1.252989E-02	    1.926114E-04	    0.000000E+00	   -1.000000E+00	    1.200000E-02	    1.200000E-02	    8.750000E+02	    0.000000E+00	    0.000000E+00	    0.000000E+00	    0.000000E+00	
   -1.251187E-02	    2.987927E-04	    0.000000E+00	   -1.000000E+00	    1.200000E-02	    1.200000E-02	    8.750000E+02	    0.000000E+00	    0.000000E+00	    0.000000E+00	    0.000000E+00	
   -1.248351E-02	    4.559055E-04	    0.000000E+00	   -1.000000E+00	    1.200000E-02	    1.200000E-02	    8.750000E+02	    0.000000E+00	    0.000000E+00	    0.000000E+00	    0.000000E+00	
   -1.243916E-02	    6.816474E-04	    0.000000E+00	   -1.000000E+00	    1.200000E-02	    1.200000E-02	    8.750000E+02	    0.000000E+00	    0.000000E+00	    0.000000E+00	    0.000000E+00	
   -1.237041E-02	    9.954785E-04	    0.000000E+00	   -1.000000E+00	    1.200000E-02	    1.200000E-02	    8.750000E+02	    0.000000E+00	    0.000000E+00	    0.000000E+00	    0.000000E+00	
   -1.226503E-02	    1.416261E-03	    0.000000E+00	   -1.000000E+00	    1.200000E-02	    1.200000E-02	    8.750000E+02	    0.000000E+00	    0.000000E+00	    0.000000E+00	    0.000000E+00	
   -1.210625E-02	    1.958738E-03	    0.000000E+00	   -1.000000E+00	    1.200000E-02	    1.200000E-02	    8.750000E+02	    0.000000E+00	    0.000000E+00	    0.000000E+00	    0.000000E+00	
   -1.187289E-02	    2.629212E-03	    0.000000E+00	   -1.000000E+00	    1.200000E-02	    1.200000E-02	    8.750000E+02	    0.000000E+00	    0.000000E+00	    0.000000E+00	    0.000000E+00	
   -1.154107E-02	    3.421293E-03	    0.000000E+00	   -1.000000E+00	    1.200000E-02	    1.200000E-02	    8.750000E+02	    0.000000E+00	    0.000000E+00	    0.000000E+00	    0.000000E+00	
   -1.108815E-02	    4.313115E-03	    0.000000E+00	   -1.000000E+00	    1.200000E-02	    1.200000E-02	    8.750000E+02	    0.000000E+00	    0.000000E+00	    0.000000E+00	    0.000000E+00	
   -1.049834E-02	    5.267606E-03	    0.000000E+00	   -1.000000E+00	    1.200000E-02	    1.200000E-02	    8.750000E+02	    0.000000E+00	    0.000000E+00	    0.000000E+00	    0.000000E+00	
   -9.768484E-03	    6.236775E-03	    0.000000E+00	   -1.000000E+00	    1.200000E-02	    1.200000E-02	    8.750000E+02	    0.000000E+00	    0.000000E+00	    0.000000E+00	    0.000000E+00	
   -8.911426E-03	    7.169506E-03	    0.000000E+00	   -1.000000E+00	    1.200000E-02	    1.200000E-02	    8.750000E+02	    0.000000E+00	    0.000000E+00	    0.000000E+00	    0.000000E+00	
   -7.955325E-03	    8.020580E-03	    0.000000E+00	   -1.000000E+00	    1.200000E-02	    1.200000E-02	    8.750000E+02	    0.000000E+00	    0.000000E+00	    0.000000E+00	    0.000000E+00	
   -6.938716E-03	    8.757871E-03	    0.000000E+00	   -1.000000E+00	    1.200000E-02	    1.200000E-02	    8.750000E+02	    0.000000E+00	    0.000000E+00	    0.000000E+00	    0.000000E+00	
   -5.903337E-03	    9.365525E-03	    0.000000E+00	   -1.000000E+00	    1.200000E-02	    1.200000E-02	    8.750000E+02	    0.000000E+00	    0.000000E+00	    0.000000E+00	    0.000000E+00	
   -4.887355E-03	    9.842879E-03	    0.000000E+00	   -1.000000E+00	    1.200000E-02	    1.200000E-02	    8.750000E+02	    0.000000E+00	    0.000000E+00	    0.000000E+00	    0.000000E+00	
   -3.920890E-03	    1.020054E-02	    0.000000E+00	   -1.000000E+00	    1.200000E-02	    1.200000E-02	    8.750000E+02	    0.000000E+00	    0.000000E+00	    0.000000E+00	    0.000000E+00	
   -3.024360E-03	    1.045558E-02	    0.000000E+00	   -1.000000E+00	    1.200000E-02	    1.200000E-02	    8.750000E+02	    0.000000E+00	    0.000000E+00	    0.000000E+00	    0.000000E+00	
   -2.209034E-03	    1.062735E-02	    0.000000E+00	   -1.000000E+00	    1.200000E-02	    1.200000E-02	    8.750000E+02	    0.000000E+00	    0.000000E+00	    0.000000E+00	    0.000000E+00	
   -1.478802E-03	    1.073455E-02	    0.000000E+00	   -1.000000E+00	    1.200000E-02	    1.200000E-02	    8.750000E+02	    0.000000E+00	    0.000000E+00	    0.000000E+00	    0.000000E+00	
   -8.322840E-04	    1.079364E-02	    0.000000E+00	   -1.000000E+00	    1.200000E-02	    1.200000E-02	    8.750000E+02	    0.000000E+00	    0.000000E+00	    0.000000E+00	    0.000000E+00	
   -2.647516E-04	    1.081818E-02	    0.000000E+00	   -1.000000E+00	    1.200000E-02	    1.200000E-02	    8.750000E+02	    0.000000E+00	    0.000000E+00	    0.000000E+00	    0.000000E+00	
    2.647516E-04	    1.081818E-02	    0.000000E+00	   -1.000000E+00	    1.200000E-02	    1.200000E-02	    8.750000E+02	    0.000000E+00	    0.000000E+00	    0.000000E+00	    0.000000E+00	
    8.322840E-04	    1.079364E-02	    0.000000E+00	   -1.000000E+00	    1.200000E-02	    1.200000E-02	    8.750000E+02	    0.000000E+00	    0.000000E+00	    0.000000E+00	    0.000000E+00	
    1.478802E-03	    1.073455E-02	    0.000000E+00	   -1.000000E+00	    1.200000E-02	    1.200000E-02	    8.750000E+02	    0.000000E+00	    0.000000E+00	    0.000000E+00	    0.000000E+00	
    2.209034E-03	    1.062735E-02	    0.000000E+00	   -1.000000E+00	    1.200000E-02	    1.200000E-02	    8.750000E+02	    0.000000E+00	    0.000000E+00	    0.000000E+00	    0.000000E+00	
    3.024360E-03	    1.045558E-02	    0.000000E+00	   -1.000000E+00	    1.200000E-02	    1.200000E-02	    8.750000E+02	    0.000000E+00	    0.000000E+00	    0.000000E+00	    0.000000E+00	
    3.920890E-03	    1.020054E-02	    0.000000E+00	   -1.000000E+00	    1.200000E-02	    1.200000E-02	    8.750000E+02	    0.000000E+00	    0.000000E+00	    0.000000E+00	    0.000000E+00	
    4.887355E-03	    9.842879E-03	    0.000000E+00	   -1.000000E+00	    1.200000E-02	    1.200000E-02	    8.750000E+02	    0.000000E+00	    0.000000E+00	    0.000000E+00	    0.000000E+00	
    5.903337E-03	    9.365525E-03	    0.000000E+00	   -1.000000E+00	    1.200000E-02	    1.200000E-02	    8.750000E+02	    0.000000E+00	    0.000000E+00	    0.000000E+00	    0.000000E+00	
    6.938716E-03	    8.757871E-03	    0.000000E+00	   -1.000000E+00	    1.200000E-02	    1.200000E-02	    8.750000E+02	    0.000000E+00	    0.000000E+00	    0.000000E+00	    0.000000E+00	
    7.955325E-03	    8.020580E-03	    0.000000E+00	   -1.000000E+00	    1.200000E-02	    1.200000E-02	    8.750000E+02	    0.000000E+00	    0.000000E+00	    0.000000E+00	    0.000000E+00	
    8.911426E-03	    7.169506E-03	    0.000000E+00	   -1.000000E+00	    1.200000E-02	    1.200000E-02	    8.750000E+02	    0.000000E+00	    0.000000E+00	    0.000000E+00	    0.000000E+00	
    9.768484E-03	    6.236775E-03	    0.000000E+00	   -1.000000E+00	    1.200000E-02	    1.200000E-02	    8.750000E+02	    0.000000E+00	    0.000000E+00	    0.000000E+00	    0.000000E+00	
    1.049834E-02	    5.267606E-03	    0.000000E+00	   -1.000000E+00	    1.200000E-02	    1.200000E-02	    8.750000E+02	    0.000000E+00	    0.000000E+00	    0.000000E+00	    0.000000E+00	
    1.108815E-02	    4.313115E-03	    0.000000E+00	   -1.000000E+00	    1.200000E-02	    1.200000E-02	    8.750000E+02	    0.000000E+00	    0.000000E+00	    0.000000E+00	    0.000000E+00	
    1.154107E-02	    3.421293E-03	    0.000000E+00	   -1.000000E+00	    1.200000E-02	    1.200000E-02	    8.750000E+02	    0.000000E+00	    0.000000E+00	    0.000000E+00	    0.000000E+00	
    1.187289E-02	    2.629212E-03	    0.000000E+00	   -1.000000E+00	    1.200000E-02	    1.200000E-02	    8.750000E+02	    0.000000E+00	    0.000000E+00	    0.000000E+00	    0.000000E+00	
    1.210625E-02	    1.958738E-03	    0.000000E+00	   -1.000000E+00	    1.200000E-02	    1.200000E-02	    8.750000E+02	    0.000000E+00	    0.000000E+00	    0.000000E+00	    0.000000E+00	
    1.226503E-02	    1.416261E-03	    0.000000E+00	   -1.000000E+00	    1.200000E-02	    1.200000E-02	    8.750000E+02	    0.000000E+00	    0.000000E+00	    0.000000E+00	    0.000000E+00	
    1.237041E-02	    9.954785E-04	    0.000000E+00	   -1.000000E+00	    1.200000E-02	    1.200000E-02	    8.750000E+02	    0.000000E+00	    0.000000E+00	    0.000000E+00	    0.000000E+00	
    1.243916E-02	    6.816474E-04	    0.000000E+00	   -1.000000E+00	    1.200000E-02	    1.200000E-02	    8.750000E+02	    0.000000E+00	    0.000000E+00	    0.000000E+00	    0.000000E+00	
    1.248351E-02	    4.559055E-04	    0.000000E+00	   -1.000000E+00	    1.200000E-02	    1.200000E-02	    8.750000E+02	    0.000000E+00	    0.000000E+00	    0.000000E+00	    0.000000E+00	
    1.251187E-02	    2.987927E-04	    0.000000E+00	   -1.000000E+00	    1.200000E-02	    1.200000E-02	    8.750000E+02	    0.000000E+00	    0.000000E+00	    0.000000E+00	    0.000000E+00	
    1.252989E-02	    1.926114E-04	    0.000000E+00	   -1.000000E+00	    1.200000E-02	    1.200000E-02	    8.750000E+02	    0.000000E+00	    0.000000E+00	    0.000000E+00	    0.000000E+00	
    1.254126E-02	    1.226500E-04	    0.000000E+00	   -1.000000E+00	    1.200000E-02	    1.200000E-02	    8.750000E+02	    0.000000E+00	    0.000000E+00	    0.000000E+00	    0.000000E+00	
    1.254838E-02	    7.750994E-05	    0.000000E+00	   -1.000000E+00	    1.200000E-02	    1.200000E-02	    8.750000E+02	    0.000000E+00	    0.000000E+00	    0.000000E+00	    0.000000E+00	
    1.255086E-02	    6.153651E-05	    0.000000E+00	   -1.000000E+00	    1.200000E-02	    1.200000E-02	    8.750000E+02	    0.000000E+00	    0.000000E+00	    0.000000E+00	    0.000000E+00	
   -1.255048E-02	    6.147676E-05	    0.000000E+00	   -1.000000E+00	    1.200000E-02	    1.200000E-02	    8.750000E+02	    0.000000E+00	    0.000000E+00	    0.000000E+00	    0.000000E+00	
   -1.254790E-02	    7.743408E-05	    3.574906E-05	   -1.000000E+00	    1.200053E-02	    1.200000E-02	    8.750000E+02	    3.553159E-06	    1.402292E-03	    3.453282E+05	    5.479944E+03	
   -1.254050E-02	    1.225272E-04	    1.141020E-04	   -1.000000E+00	    1.200064E-02	    1.200000E-02	    8.750000E+02	    4.293939E-06	    8.179199E-04	    1.666721E+05	    2.229600E+04	
   -1.252871E-02	    1.924120E-04	    2.146275E-04	   -1.000000E+00	    1.200095E-02	    1.200000E-02	    8.750000E+02	    6.348442E-06	    7.249685E-04	    9.992176E+04	    3.198556E+04	
   -1.251004E-02	    2.984679E-04	    3.527797E-04	   -1.000000E+00	    1.200161E-02	    1.200000E-02	    8.750000E+02	    1.076572E-05	    8.663977E-04	    7.041778E+04	    3.590718E+04	
   -1.248072E-02	    4.553748E-04	    5.441644E-04	   -1.000000E+00	    1.200278E-02	    1.200000E-02	    8.750000E+02	    1.856370E-05	    1.106583E-03	    5.215880E+04	    3.669183E+04	
   -1.243501E-02	    6.807786E-04	    8.030184E-04	   -1.000000E+00	    1.200465E-02	    1.200000E-02	    8.750000E+02	    3.102123E-05	    1.382456E-03	    3.899423E+04	    3.573536E+04	
   -1.236438E-02	    9.940568E-04	    1.140909E-03	   -1.000000E+00	    1.200747E-02	    1.200000E-02	    8.750000E+02	    4.977095E-05	    1.668813E-03	    2.933863E+04	    3.381107E+04	
   -1.225652E-02	    1.413947E-03	    1.566822E-03	   -1.000000E+00	    1.201149E-02	    1.200000E-02	    8.750000E+02	    7.663127E-05	    1.954946E-03	    2.232219E+04	    3.148858E+04	
   -1.209464E-02	    1.955018E-03	    2.087409E-03	   -1.000000E+00	    1.201700E-02	    1.200000E-02	    8.750000E+02	    1.133475E-04	    2.236638E-03	    1.726600E+04	    2.919786E+04	
   -1.185760E-02	    2.623357E-03	    2.704679E-03	   -1.000000E+00	    1.202418E-02	    1.200000E-02	    8.750000E+02	    1.611887E-04	    2.511222E-03	    1.363197E+04	    2.718015E+04	
   -1.152174E-02	    3.412350E-03	    3.411668E-03	   -1.000000E+00	    1.203306E-02	    1.200000E-02	    8.750000E+02	    2.204204E-04	    2.774334E-03	    1.101324E+04	    2.550939E+04	
   -1.106475E-02	    4.299964E-03	    4.189217E-03	   -1.000000E+00	    1.204348E-02	    1.200000E-02	    8.750000E+02	    2.898443E-04	    3.019761E-03	    9.116243E+03	    2.416621E+04	
   -1.047130E-02	    5.249093E-03	    5.006143E-03	   -1.000000E+00	    1.205500E-02	    1.200000E-02	    8.750000E+02	    3.666513E-04	    3.241216E-03	    7.735042E+03	    2.309987E+04	
   -9.738702E-03	    6.211912E-03	    5.823232E-03	   -1.000000E+00	    1.206701E-02	    1.200000E-02	    8.750000E+02	    4.467341E-04	    3.434091E-03	    6.726215E+03	    2.225898E+04	
   -8.880209E-03	    7.137670E-03	    6.599913E-03	   -1.000000E+00	    1.207881E-02	    1.200000E-02	    8.750000E+02	    5.254137E-04	    3.596301E-03	    5.989116E+03	    2.160074E+04	
   -7.924162E-03	    7.981645E-03	    7.301440E-03	   -1.000000E+00	    1.208975E-02	    1.200000E-02	    8.750000E+02	    5.983435E-04	    3.728224E-03	    5.452045E+03	    2.109096E+04	
   -6.909047E-03	    8.712220E-03	    7.904214E-03	   -1.000000E+00	    1.209934E-02	    1.200000E-02	    8.750000E+02	    6.622699E-04	    3.832143E-03	    5.063079E+03	    2.070189E+04	
   -5.876352E-03	    9.313943E-03	    8.397771E-03	   -1.000000E+00	    1.210731E-02	    1.200000E-02	    8.750000E+02	    7.154109E-04	    3.911509E-03	    4.784063E+03	    2.041033E+04	
   -4.863881E-03	    9.786388E-03	    8.783512E-03	   -1.000000E+00	    1.211361E-02	    1.200000E-02	    8.750000E+02	    7.574133E-04	    3.970272E-03	    4.586648E+03	    2.019657E+04	
   -3.901377E-03	    1.014023E-02	    9.071369E-03	   -1.000000E+00	    1.211835E-02	    1.200000E-02	    8.750000E+02	    7.890166E-04	    4.012365E-03	    4.449615E+03	    2.004388E+04	
   -3.008934E-03	    1.039247E-02	    9.275965E-03	   -1.000000E+00	    1.212174E-02	    1.200000E-02	    8.750000E+02	    8.116132E-04	    4.041387E-03	    4.357019E+03	    1.993824E+04	
   -2.197583E-03	    1.056231E-02	    9.413359E-03	   -1.000000E+00	    1.212403E-02	    1.200000E-02	    8.750000E+02	    8.268540E-04	    4.060436E-03	    4.296867E+03	    1.986813E+04	
   -1.471059E-03	    1.066830E-02	    9.498831E-03	   -1.000000E+00	    1.212546E-02	    1.200000E-02	    8.750000E+02	    8.363682E-04	    4.072065E-03	    4.260154E+03	    1.982430E+04	
   -8.279024E-04	    1.072672E-02	    9.545695E-03	   -1.000000E+00	    1.212624E-02	    1.200000E-02	    8.750000E+02	    8.416043E-04	    4.078307E-03	    4.240138E+03	    1.979947E+04	
   -2.633547E-04	    1.075098E-02	    9.564862E-03	   -1.000000E+00	    1.212656E-02	    1.200000E-02	    8.750000E+02	    8.437656E-04	    4.080753E-03	    4.231813E+03	    1.978800E+04	
    2.633547E-04	    1.075098E-02	    9.564862E-03	   -1.000000E+00	    1.212656E-02	    1.200000E-02	    8.750000E+02	    8.437656E-04	    4.080753E-03	    4.231813E+03	    1.978800E+04	
    8.279024E-04	    1.072672E-02	    9.545695E-03	   -1.000000E+00	    1.212624E-02	    1.200000E-02	    8.750000E+02	    8.416043E-04	    4.078307E-03	    4.240139E+03	    1.979947E+04	
    1.471059E-03	    1.066830E-02	    9.498832E-03	   -1.000000E+00	    1.212546E-02	    1.200000E-02	    8.750000E+02	    8.363683E-04	    4.072066E-03	    4.260154E+03	    1.982430E+04	
    2.197583E-03	    1.056231E-02	    9.413360E-03	   -1.000000E+00	    1.212403E-02	    1.200000E-02	    8.750000E+02	    8.268541E-04	    4.060437E-03	    4.296867E+03	    1.986814E+04	
    3.008934E-03	    1.039247E-02	    9.275966E-03	   -1.000000E+00	    1.212174E-02	    1.200000E-02	    8.750000E+02	    8.116133E-04	    4.041388E-03	    4.357019E+03	    1.993825E+04	
    3.901377E-03	    1.014023E-02	    9.071371E-03	   -1.000000E+00	    1.211835E-02	    1.200000E-02	    8.750000E+02	    7.890167E-04	    4.012366E-03	    4.449615E+03	    2.004389E+04	
    4.863881E-03	    9.786388E-03	    8.783515E-03	   -1.000000E+00	    1.211361E-02	    1.200000E-02	    8.750000E+02	    7.574134E-04	    3.970273E-03	    4.586648E+03	    2.019658E+04	
    5.876352E-03	    9.313943E-03	    8.397774E-03	   -1.000000E+00	    1.210731E-02	    1.200000E-02	    8.750000E+02	    7.154111E-04	    3.911511E-03	    4.784064E+03	    2.041034E+04	
    6.909047E-03	    8.712220E-03	    7.904217E-03	   -1.000000E+00	    1.209934E-02	    1.200000E-02	    8.750000E+02	    6.622701E-04	    3.832144E-03	    5.063080E+03	    2.070191E+04	
    7.924162E-03	    7.981645E-03	    7.301444E-03	   -1.000000E+00	    1.208975E-02	    1.200000E-02	    8.750000E+02	    5.983437E-04	    3.728226E-03	    5.452046E+03	    2.109099E+04	
    8.880209E-03	    7.137670E-03	    6.599917E-03	   -1.000000E+00	    1.207881E-02	    1.200000E-02	    8.750000E+02	    5.254138E-04	    3.596303E-03	    5.989118E+03	    2.160077E+04	
    9.738702E-03	    6.211912E-03	    5.823236E-03	   -1.000000E+00	    1.206701E-02	    1.200000E-02	    8.750000E+02	    4.467343E-04	    3.434094E-03	    6.726218E+03	    2.225901E+04	
    1.047130E-02	    5.249093E-03	    5.006147E-03	   -1.000000E+00	    1.205500E-02	    1.200000E-02	    8.750000E+02	    3.666515E-04	    3.241218E-03	    7.735046E+03	    2.309991E+04	
    1.106475E-02	    4.299964E-03	    4.189221E-03	   -1.000000E+00	    1.204348E-02	    1.200000E-02	    8.750000E+02	    2.898444E-04	    3.019763E-03	    9.116247E+03	    2.416626E+04	
    1.152174E-02	    3.412350E-03	    3.411672E-03	   -1.000000E+00	    1.203306E-02	    1.200000E-02	    8.750000E+02	    2.204205E-04	    2.774336E-03	    1.101324E+04	    2.550946E+04	
    1.185760E-02	    2.623357E-03	    2.704683E-03	   -1.000000E+00	    1.202418E-02	    1.200000E-02	    8.750000E+02	    1.611888E-04	    2.511225E-03	    1.363198E+04	    2.718024E+04	
    1.209464E-02	    1.955018E-03	    2.087415E-03	   -1.000000E+00	    1.201700E-02	    1.200000E-02	    8.750000E+02	    1.133476E-04	    2.236641E-03	    1.726602E+04	    2.919802E+04	
    1.225652E-02	    1.413947E-03	    1.566830E-03	   -1.000000E+00	    1.201149E-02	    1.200000E-02	    8.750000E+02	    7.663140E-05	    1.954952E-03	    2.232223E+04	    3.148893E+04	
    1.236438E-02	    9.940568E-04	    1.140924E-03	   -1.000000E+00	    1.200747E-02	    1.200000E-02	    8.750000E+02	    4.977123E-05	    1.668832E-03	    2.933879E+04	    3.381197E+04	
    1.243501E-02	    6.807786E-04	    8.030461E-04	   -1.000000E+00	    1.200465E-02	    1.200000E-02	    8.750000E+02	    3.102182E-05	    1.382509E-03	    3.899497E+04	    3.573783E+04	
    1.248072E-02	    4.553748E-04	    5.442132E-04	   -1.000000E+00	    1.200278E-02	    1.200000E-02	    8.750000E+02	    1.856502E-05	    1.106741E-03	    5.216251E+04	    3.669842E+04	
    1.251004E-02	    2.984679E-04	    3.528601E-04	   -1.000000E+00	    1.200162E-02	    1.200000E-02	    8.750000E+02	    1.076890E-05	    8.669097E-04	    7.043858E+04	    3.592356E+04	
    1.252871E-02	    1.924120E-04	    2.147468E-04	   -1.000000E+00	    1.200095E-02	    1.200000E-02	    8.750000E+02	    6.355591E-06	    7.266024E-04	    1.000343E+05	    3.202112E+04	
    1.254050E-02	    1.225272E-04	    1.142449E-04	   -1.000000E+00	    1.200065E-02	    1.200000E-02	    8.750000E+02	    4.306067E-06	    8.225466E-04	    1.671428E+05	    2.235187E+04	
    1.254790E-02	    7.743408E-05	    3.583800E-05	   -1.000000E+00	    1.200054E-02	    1.200000E-02	    8.750000E+02	    3.568915E-06	    1.414757E-03	    3.468595E+05	    5.507232E+03	
    1.255048E-02	    6.147676E-05	    0.000000E+00	   -1.000000E+00	    1.200000E-02	    1.200000E-02	    8.750000E+02	    0.000000E+00	    0.000000E+00	    0.000000E+00	    0.000000E+00	
   -1.254961E-02	    6.132956E-05	    0.000000E+00	   -1.000000E+00	    1.200000E-02	    1.200000E-02	    8.750000E+02	    0.000000E+00	    0.000000E+00	    0.000000E+00	    0.000000E+00	
   -1.254680E-02	    7.724727E-05	    1.184046E-04	   -1.000000E+00	    1.201781E-02	    1.200000E-02	    8.750000E+02	    1.187460E-04	    1.397938E-03	    1.030095E+04	    5.510625E+03	
   -1.253876E-02	    1.222254E-04	    3.780922E-04	   -1.000000E+00	    1.200067E-02	    1.200000E-02	    8.750000E+02	    4.451463E-06	    7.997534E-04	    1.572032E+05	    2.230736E+04	
   -1.252598E-02	    1.919228E-04	    7.111570E-04	   -1.000000E+00	    1.200096E-02	    1.200000E-02	    8.750000E+02	    6.405899E-06	    6.922073E-04	    9.455057E+04	    3.198534E+04	
   -1.250581E-02	    2.976733E-04	    1.168782E-03	   -1.000000E+00	    1.200162E-02	    1.200000E-02	    8.750000E+02	    1.080359E-05	    8.085439E-04	    6.548527E+04	    3.589973E+04	
   -1.247428E-02	    4.540817E-04	    1.802506E-03	   -1.000000E+00	    1.200279E-02	    1.200000E-02	    8.750000E+02	    1.862447E-05	    1.008839E-03	    4.739646E+04	    3.667678E+04	
   -1.242541E-02	    6.786720E-04	    2.659144E-03	   -1.000000E+00	    1.200467E-02	    1.200000E-02	    8.750000E+02	    3.116111E-05	    1.227575E-03	    3.447017E+04	    3.570982E+04	
   -1.235045E-02	    9.906291E-04	    3.776356E-03	   -1.000000E+00	    1.200751E-02	    1.200000E-02	    8.750000E+02	    5.009503E-05	    1.438358E-03	    2.512351E+04	    3.377046E+04	
   -1.223689E-02	    1.408401E-03	    5.182784E-03	   -1.000000E+00	    1.201160E-02	    1.200000E-02	    8.750000E+02	    7.735681E-05	    1.630936E-03	    1.844788E+04	    3.142720E+04	
   -1.206788E-02	    1.946158E-03	    6.898780E-03	   -1.000000E+00	    1.201724E-02	    1.200000E-02	    8.750000E+02	    1.149148E-04	    1.803164E-03	    1.372989E+04	    2.910933E+04	
   -1.182243E-02	    2.609495E-03	    8.928737E-03	   -1.000000E+00	    1.202466E-02	    1.200000E-02	    8.750000E+02	    1.644237E-04	    1.956219E-03	    1.041025E+04	    2.705780E+04	
   -1.147733E-02	    3.391293E-03	    1.124706E-02	   -1.000000E+00	    1.203401E-02	    1.200000E-02	    8.750000E+02	    2.267159E-04	    2.091601E-03	    8.072441E+03	    2.534663E+04	
   -1.101105E-02	    4.269149E-03	    1.378813E-02	   -1.000000E+00	    1.204519E-02	    1.200000E-02	    8.750000E+02	    3.012745E-04	    2.210450E-03	    6.419872E+03	    2.395716E+04	
   -1.040933E-02	    5.205901E-03	    1.644773E-02	   -1.000000E+00	    1.205788E-02	    1.200000E-02	    8.750000E+02	    3.858930E-04	    2.313870E-03	    5.246626E+03	    2.284014E+04	
   -9.670578E-03	    6.154117E-03	    1.909707E-02	   -1.000000E+00	    1.207151E-02	    1.200000E-02	    8.750000E+02	    4.767087E-04	    2.403047E-03	    4.410798E+03	    2.194642E+04	
   -8.808907E-03	    7.063898E-03	    2.160506E-02	   -1.000000E+00	    1.208531E-02	    1.200000E-02	    8.750000E+02	    5.687000E-04	    2.479062E-03	    3.814277E+03	    2.123588E+04	
   -7.853080E-03	    7.891658E-03	    2.386146E-02	   -1.000000E+00	    1.209849E-02	    1.200000E-02	    8.750000E+02	    6.565736E-04	    2.542776E-03	    3.388697E+03	    2.067701E+04	
   -6.841454E-03	    8.606929E-03	    2.579332E-02	   -1.000000E+00	    1.211036E-02	    1.200000E-02	    8.750000E+02	    7.357659E-04	    2.594932E-03	    3.085989E+03	    2.024430E+04	
   -5.814933E-03	    9.195167E-03	    2.737029E-02	   -1.000000E+00	    1.212048E-02	    1.200000E-02	    8.750000E+02	    8.032004E-04	    2.636366E-03	    2.872036E+03	    1.991597E+04	
   -4.810494E-03	    9.656468E-03	    2.859967E-02	   -1.000000E+00	    1.212863E-02	    1.200000E-02	    8.750000E+02	    8.575614E-04	    2.668151E-03	    2.722408E+03	    1.967282E+04	
   -3.857024E-03	    1.000164E-02	    2.951529E-02	   -1.000000E+00	    1.213486E-02	    1.200000E-02	    8.750000E+02	    8.990946E-04	    2.691590E-03	    2.619458E+03	    1.949782E+04	
   -2.973885E-03	    1.024753E-02	    3.016512E-02	   -1.000000E+00	    1.213937E-02	    1.200000E-02	    8.750000E+02	    9.291283E-04	    2.708108E-03	    2.550342E+03	    1.937611E+04	
   -2.171572E-03	    1.041303E-02	    3.060106E-02	   -1.000000E+00	    1.214243E-02	    1.200000E-02	    8.750000E+02	    9.495450E-04	    2.719117E-03	    2.505650E+03	    1.929512E+04	
   -1.453475E-03	    1.051627E-02	    3.087205E-02	   -1.000000E+00	    1.214435E-02	    1.200000E-02	    8.750000E+02	    9.623550E-04	    2.725899E-03	    2.478463E+03	    1.924448E+04	
   -8.179524E-04	    1.057316E-02	    3.102056E-02	   -1.000000E+00	    1.214541E-02	    1.200000E-02	    8.750000E+02	    9.694245E-04	    2.729550E-03	    2.463685E+03	    1.921591E+04	
   -2.601825E-04	    1.059679E-02	    3.108126E-02	   -1.000000E+00	    1.214585E-02	    1.200000E-02	    8.750000E+02	    9.723405E-04	    2.730972E-03	    2.457576E+03	    1.920293E+04	
    2.601825E-04	    1.059679E-02	    3.108126E-02	   -1.000000E+00	    1.214585E-02	    1.200000E-02	    8.750000E+02	    9.723405E-04	    2.730972E-03	    2.457576E+03	    1.920293E+04	
    8.179524E-04	    1.057316E-02	    3.102056E-02	   -1.000000E+00	    1.214541E-02	    1.200000E-02	    8.750000E+02	    9.694245E-04	    2.729550E-03	    2.463685E+03	    1.921591E+04	
    1.453475E-03	    1.051627E-02	    3.087205E-02	   -1.000000E+00	    1.214435E-02	    1.200000E-02	    8.750000E+02	    9.623551E-04	    2.725899E-03	    2.478464E+03	    1.924449E+04	
    2.171572E-03	    1.041303E-02	    3.060106E-02	   -1.000000E+00	    1.214243E-02	    1.200000E-02	    8.750000E+02	    9.495451E-04	    2.719118E-03	    2.505650E+03	    1.929513E+04	
    2.973885E-03	    1.024753E-02	    3.016513E-02	   -1.000000E+00	    1.213937E-02	    1.200000E-02	    8.750000E+02	    9.291284E-04	    2.708109E-03	    2.550342E+03	    1.937612E+04	
    3.857024E-03	    1.000164E-02	    2.951530E-02	   -1.000000E+00	    1.213486E-02	    1.200000E-02	    8.750000E+02	    8.990947E-04	    2.691590E-03	    2.619459E+03	    1.949783E+04	
    4.810494E-03	    9.656468E-03	    2.859968E-02	   -1.000000E+00	    1.212863E-02	    1.200000E-02	    8.750000E+02	    8.575615E-04	    2.668151E-03	    2.722408E+03	    1.967283E+04	
    5.814933E-03	    9.195167E-03	    2.737029E-02	   -1.000000E+00	    1.212048E-02	    1.200000E-02	    8.750000E+02	    8.032006E-04	    2.636367E-03	    2.872036E+03	    1.991599E+04	
    6.841454E-03	    8.606929E-03	    2.579333E-02	   -1.000000E+00	    1.211036E-02	    1.200000E-02	    8.750000E+02	    7.357661E-04	    2.594933E-03	    3.085989E+03	    2.024432E+04	
    7.853080E-03	    7.891658E-03	    2.386147E-02	   -1.000000E+00	    1.209849E-02	    1.200000E-02	    8.750000E+02	    6.565738E-04	    2.542778E-03	    3.388698E+03	    2.067703E+04	
    8.808907E-03	    7.063898E-03	    2.160507E-02	   -1.000000E+00	    1.208531E-02	    1.200000E-02	    8.750000E+02	    5.687002E-04	    2.479063E-03	    3.814278E+03	    2.123590E+04	
    9.670578E-03	    6.154117E-03	    1.909709E-02	   -1.000000E+00	    1.207151E-02	    1.200000E-02	    8.750000E+02	    4.767089E-04	    2.403048E-03	    4.410799E+03	    2.194646E+04	
    1.040933E-02	    5.205901E-03	    1.644775E-02	   -1.000000E+00	    1.205788E-02	    1.200000E-02	    8.750000E+02	    3.858932E-04	    2.313872E-03	    5.246628E+03	    2.284019E+04	
    1.101105E-02	    4.269149E-03	    1.378815E-02	   -1.000000E+00	    1.204519E-02	    1.200000E-02	    8.750000E+02	    3.012746E-04	    2.210451E-03	    6.419874E+03	    2.395721E+04	
    1.147733E-02	    3.391293E-03	    1.124708E-02	   -1.000000E+00	    1.203401E-02	    1.200000E-02	    8.750000E+02	    2.267160E-04	    2.091602E-03	    8.072444E+03	    2.534669E+04	
    1.182243E-02	    2.609495E-03	    8.928752E-03	   -1.000000E+00	    1.202466E-02	    1.200000E-02	    8.750000E+02	    1.644237E-04	    1.956220E-03	    1.041026E+04	    2.705789E+04	
    1.206788E-02	    1.946158E-03	    6.898799E-03	   -1.000000E+00	    1.201724E-02	    1.200000E-02	    8.750000E+02	    1.149149E-04	    1.803165E-03	    1.372990E+04	    2.910949E+04	
    1.223689E-02	    1.408401E-03	    5.182813E-03	   -1.000000E+00	    1.201160E-02	    1.200000E-02	    8.750000E+02	    7.735689E-05	    1.630940E-03	    1.844791E+04	    3.142755E+04	
    1.235045E-02	    9.906291E-04	    3.776406E-03	   -1.000000E+00	    1.200751E-02	    1.200000E-02	    8.750000E+02	    5.009526E-05	    1.438372E-03	    2.512364E+04	    3.377137E+04	
    1.242541E-02	    6.786720E-04	    2.659236E-03	   -1.000000E+00	    1.200467E-02	    1.200000E-02	    8.750000E+02	    3.116166E-05	    1.227620E-03	    3.447080E+04	    3.571229E+04	
    1.247428E-02	    4.540817E-04	    1.802668E-03	   -1.000000E+00	    1.200279E-02	    1.200000E-02	    8.750000E+02	    1.862581E-05	    1.008981E-03	    4.739976E+04	    3.668336E+04	
    1.250581E-02	    2.976733E-04	    1.169049E-03	   -1.000000E+00	    1.200162E-02	    1.200000E-02	    8.750000E+02	    1.080690E-05	    8.090273E-04	    6.550437E+04	    3.591610E+04	
    1.252598E-02	    1.919228E-04	    7.115522E-04	   -1.000000E+00	    1.200096E-02	    1.200000E-02	    8.750000E+02	    6.413433E-06	    6.937902E-04	    9.465546E+04	    3.202089E+04	
    1.253876E-02	    1.222254E-04	    3.785657E-04	   -1.000000E+00	    1.200067E-02	    1.200000E-02	    8.750000E+02	    4.464501E-06	    8.043144E-04	    1.576380E+05	    2.236325E+04	
    1.254680E-02	    7.724727E-05	    1.186991E-04	   -1.000000E+00	    1.201789E-02	    1.200000E-02	    8.750000E+02	    1.192740E-04	    1.410398E-03	    1.034675E+04	    5.537996E+03	
    1.254961E-02	    6.132956E-05	    0.000000E+00	   -1.000000E+00	    1.200000E-02	    1.200000E-02	    8.750000E+02	    0.000000E+00	    0.000000E+00	    0.000000E+00	    0.000000E+00	
   -1.254846E-02	    6.111798E-05	    0.000000E+00	   -1.000000E+00	    1.200000E-02	    1.200000E-02	    8.750000E+02	    0.000000E+00	    0.000000E+00	    0.000000E+00	    0.000000E+00	
   -1.254536E-02	    7.697896E-05	    2.264931E-04	   -1.000000E+00	    1.201778E-02	    1.200000E-02	    8.750000E+02	    1.185338E-04	    1.393235E-03	    1.028466E+04	    5.623281E+03	