Title="Fields"
Variables="X""Y""Velocity""Phi""Effective Viscosity""Dynamic Viscosity""Density""Eddy Viscosity""K""Epsilon""S"
Zone I=52 J=52 F=POINT
   -1.214864E-02	    6.022430E-05	    0.000000E+00	    0.000000E+00	    1.000000E-03	    1.000000E-03	    1.000000E+03	    0.000000E+00	    0.000000E+00	    0.000000E+00	    0.000000E+00	
   -1.214840E-02	    7.587059E-05	    0.000000E+00	    0.000000E+00	    1.000000E-03	    1.000000E-03	    1.000000E+03	    0.000000E+00	    0.000000E+00	    0.000000E+00	    0.000000E+00	
   -1.214760E-02	    1.201162E-04	    0.000000E+00	    0.000000E+00	    1.000000E-03	    1.000000E-03	    1.000000E+03	    0.000000E+00	    0.000000E+00	    0.000000E+00	    0.000000E+00	
   -1.214604E-02	    1.887791E-04	    0.000000E+00	    0.000000E+00	    1.000000E-03	    1.000000E-03	    1.000000E+03	    0.000000E+00	    0.000000E+00	    0.000000E+00	    0.000000E+00	
   -1.214292E-02	    2.931943E-04	    0.000000E+00	    0.000000E+00	    1.000000E-03	    1.000000E-03	    1.000000E+03	    0.000000E+00	    0.000000E+00	    0.000000E+00	    0.000000E+00	
   -1.213664E-02	    4.481479E-04	    0.000000E+00	    0.000000E+00	    1.000000E-03	    1.000000E-03	    1.000000E+03	    0.000000E+00	    0.000000E+00	    0.000000E+00	    0.000000E+00	
   -1.212408E-02	    6.717413E-04	    0.000000E+00	    0.000000E+00	    1.000000E-03	    1.000000E-03	    1.000000E+03	    0.000000E+00	    0.000000E+00	    0.000000E+00	    0.000000E+00	
   -1.209956E-02	    9.844691E-04	    0.000000E+00	    0.000000E+00	    1.000000E-03	    1.000000E-03	    1.000000E+03	    0.000000E+00	    0.000000E+00	    0.000000E+00	    0.000000E+00	
   -1.205344E-02	    1.407248E-03	    0.000000E+00	    0.000000E+00	    1.000000E-03	    1.000000E-03	    1.000000E+03	    0.000000E+00	    0.000000E+00	    0.000000E+00	    0.000000E+00	
   -1.197068E-02	    1.958259E-03	    0.000000E+00	    0.000000E+00	    1.000000E-03	    1.000000E-03	    1.000000E+03	    0.000000E+00	    0.000000E+00	    0.000000E+00	    0.000000E+00	
   -1.182998E-02	    2.648730E-03	    0.000000E+00	    0.000000E+00	    1.000000E-03	    1.000000E-03	    1.000000E+03	    0.000000E+00	    0.000000E+00	    0.000000E+00	    0.000000E+00	
   -1.160451E-02	    3.478208E-03	    0.000000E+00	    0.000000E+00	    1.000000E-03	    1.000000E-03	    1.000000E+03	    0.000000E+00	    0.000000E+00	    0.000000E+00	    0.000000E+00	
   -1.126508E-02	    4.430482E-03	    0.000000E+00	    0.000000E+00	    1.000000E-03	    1.000000E-03	    1.000000E+03	    0.000000E+00	    0.000000E+00	    0.000000E+00	    0.000000E+00	
   -1.078595E-02	    5.471869E-03	    0.000000E+00	    0.000000E+00	    1.000000E-03	    1.000000E-03	    1.000000E+03	    0.000000E+00	    0.000000E+00	    0.000000E+00	    0.000000E+00	
   -1.015216E-02	    6.553542E-03	    0.000000E+00	    0.000000E+00	    1.000000E-03	    1.000000E-03	    1.000000E+03	    0.000000E+00	    0.000000E+00	    0.000000E+00	    0.000000E+00	
   -9.365676E-03	    7.618437E-03	    0.000000E+00	    0.000000E+00	    1.000000E-03	    1.000000E-03	    1.000000E+03	    0.000000E+00	    0.000000E+00	    0.000000E+00	    0.000000E+00	
   -8.447592E-03	    8.611236E-03	    0.000000E+00	    0.000000E+00	    1.000000E-03	    1.000000E-03	    1.000000E+03	    0.000000E+00	    0.000000E+00	    0.000000E+00	    0.000000E+00	
   -7.434908E-03	    9.488112E-03	    0.000000E+00	    0.000000E+00	    1.000000E-03	    1.000000E-03	    1.000000E+03	    0.000000E+00	    0.000000E+00	    0.000000E+00	    0.000000E+00	
   -6.373132E-03	    1.022286E-02	    0.000000E+00	    0.000000E+00	    1.000000E-03	    1.000000E-03	    1.000000E+03	    0.000000E+00	    0.000000E+00	    0.000000E+00	    0.000000E+00	
   -5.307702E-03	    1.080785E-02	    0.000000E+00	    0.000000E+00	    1.000000E-03	    1.000000E-03	    1.000000E+03	    0.000000E+00	    0.000000E+00	    0.000000E+00	    0.000000E+00	
   -4.277189E-03	    1.125075E-02	    0.000000E+00	    0.000000E+00	    1.000000E-03	    1.000000E-03	    1.000000E+03	    0.000000E+00	    0.000000E+00	    0.000000E+00	    0.000000E+00	
   -3.309761E-03	    1.156901E-02	    0.000000E+00	    0.000000E+00	    1.000000E-03	    1.000000E-03	    1.000000E+03	    0.000000E+00	    0.000000E+00	    0.000000E+00	    0.000000E+00	
   -2.422724E-03	    1.178450E-02	    0.000000E+00	    0.000000E+00	    1.000000E-03	    1.000000E-03	    1.000000E+03	    0.000000E+00	    0.000000E+00	    0.000000E+00	    0.000000E+00	
   -1.624046E-03	    1.191947E-02	    0.000000E+00	    0.000000E+00	    1.000000E-03	    1.000000E-03	    1.000000E+03	    0.000000E+00	    0.000000E+00	    0.000000E+00	    0.000000E+00	
   -9.147101E-04	    1.199402E-02	    0.000000E+00	    0.000000E+00	    1.000000E-03	    1.000000E-03	    1.000000E+03	    0.000000E+00	    0.000000E+00	    0.000000E+00	    0.000000E+00	
   -2.910617E-04	    1.202501E-02	    0.000000E+00	    0.000000E+00	    1.000000E-03	    1.000000E-03	    1.000000E+03	    0.000000E+00	    0.000000E+00	    0.000000E+00	    0.000000E+00	
    2.910617E-04	    1.202501E-02	    0.000000E+00	    0.000000E+00	    1.000000E-03	    1.000000E-03	    1.000000E+03	    0.000000E+00	    0.000000E+00	    0.000000E+00	    0.000000E+00	
    9.147101E-04	    1.199402E-02	    0.000000E+00	    0.000000E+00	    1.000000E-03	    1.000000E-03	    1.000000E+03	    0.000000E+00	    0.000000E+00	    0.000000E+00	    0.000000E+00	
    1.624046E-03	    1.191947E-02	    0.000000E+00	    0.000000E+00	    1.000000E-03	    1.000000E-03	    1.000000E+03	    0.000000E+00	    0.000000E+00	    0.000000E+00	    0.000000E+00	
    2.422724E-03	    1.178450E-02	    0.000000E+00	    0.000000E+00	    1.000000E-03	    1.000000E-03	    1.000000E+03	    0.000000E+00	    0.000000E+00	    0.000000E+00	    0.000000E+00	
    3.309761E-03	    1.156901E-02	    0.000000E+00	    0.000000E+00	    1.000000E-03	    1.000000E-03	    1.000000E+03	    0.000000E+00	    0.000000E+00	    0.000000E+00	    0.000000E+00	
    4.277189E-03	    1.125075E-02	    0.000000E+00	    0.000000E+00	    1.000000E-03	    1.000000E-03	    1.000000E+03	    0.000000E+00	    0.000000E+00	    0.000000E+00	    0.000000E+00	
    5.307702E-03	    1.080785E-02	    0.000000E+00	    0.000000E+00	    1.000000E-03	    1.000000E-03	    1.000000E+03	    0.000000E+00	    0.000000E+00	    0.000000E+00	    0.000000E+00	
    6.373132E-03	    1.022286E-02	    0.000000E+00	    0.000000E+00	    1.000000E-03	    1.000000E-03	    1.000000E+03	    0.000000E+00	    0.000000E+00	    0.000000E+00	    0.000000E+00	
    7.434908E-03	    9.488112E-03	    0.000000E+00	    0.000000E+00	    1.000000E-03	    1.000000E-03	    1.000000E+03	    0.000000E+00	    0.000000E+00	    0.000000E+00	    0.000000E+00	
    8.447592E-03	    8.611236E-03	    0.000000E+00	    0.000000E+00	    1.000000E-03	    1.000000E-03	    1.000000E+03	    0.000000E+00	    0.000000E+00	    0.000000E+00	    0.000000E+00	
    9.365676E-03	    7.618437E-03	    0.000000E+00	    0.000000E+00	    1.000000E-03	    1.000000E-03	    1.000000E+03	    0.000000E+00	    0.000000E+00	    0.000000E+00	    0.000000E+00	
    1.015216E-02	    6.553542E-03	    0.000000E+00	    0.000000E+00	    1.000000E-03	    1.000000E-03	    1.000000E+03	    0.000000E+00	    0.000000E+00	    0.000000E+00	    0.000000E+00	
    1.078595E-02	    5.471869E-03	    0.000000E+00	    0.000000E+00	    1.000000E-03	    1.000000E-03	    1.000000E+03	    0.000000E+00	    0.000000E+00	    0.000000E+00	    0.000000E+00	
    1.126508E-02	    4.430482E-03	    0.000000E+00	    0.000000E+00	    1.000000E-03	    1.000000E-03	    1.000000E+03	    0.000000E+00	    0.000000E+00	    0.000000E+00	    0.000000E+00	
    1.160451E-02	    3.478208E-03	    0.000000E+00	    0.000000E+00	    1.000000E-03	    1.000000E-03	    1.000000E+03	    0.000000E+00	    0.000000E+00	    0.000000E+00	    0.000000E+00	
    1.182998E-02	    2.648730E-03	    0.000000E+00	    0.000000E+00	    1.000000E-03	    1.000000E-03	    1.000000E+03	    0.000000E+00	    0.000000E+00	    0.000000E+00	    0.000000E+00	
    1.197068E-02	    1.958259E-03	    0.000000E+00	    0.000000E+00	    1.000000E-03	    1.000000E-03	    1.000000E+03	    0.000000E+00	    0.000000E+00	    0.000000E+00	    0.000000E+00	
    1.205344E-02	    1.407248E-03	    0.000000E+00	    0.000000E+00	    1.000000E-03	    1.000000E-03	    1.000000E+03	    0.000000E+00	    0.000000E+00	    0.000000E+00	    0.000000E+00	
    1.209956E-02	    9.844691E-04	    0.000000E+00	    0.000000E+00	    1.000000E-03	    1.000000E-03	    1.000000E+03	    0.000000E+00	    0.000000E+00	    0.000000E+00	    0.000000E+00	
    1.212408E-02	    6.717413E-04	    0.000000E+00	    0.000000E+00	    1.000000E-03	    1.000000E-03	    1.000000E+03	    0.000000E+00	    0.000000E+00	    0.000000E+00	    0.000000E+00	
    1.213664E-02	    4.481479E-04	    0.000000E+00	    0.000000E+00	    1.000000E-03	    1.000000E-03	    1.000000E+03	    0.000000E+00	    0.000000E+00	    0.000000E+00	    0.000000E+00	
    1.214292E-02	    2.931943E-04	    0.000000E+00	    0.000000E+00	    1.000000E-03	    1.000000E-03	    1.000000E+03	    0.000000E+00	    0.000000E+00	    0.000000E+00	    0.000000E+00	
    1.214604E-02	    1.887791E-04	    0.000000E+00	    0.000000E+00	    1.000000E-03	    1.000000E-03	    1.000000E+03	    0.000000E+00	    0.000000E+00	    0.000000E+00	    0.000000E+00	
    1.214760E-02	    1.201162E-04	    0.000000E+00	    0.000000E+00	    1.000000E-03	    1.000000E-03	    1.000000E+03	    0.000000E+00	    0.000000E+00	    0.000000E+00	    0.000000E+00	
    1.214840E-02	    7.587059E-05	    0.000000E+00	    0.000000E+00	    1.000000E-03	    1.000000E-03	    1.000000E+03	    0.000000E+00	    0.000000E+00	    0.000000E+00	    0.000000E+00	
    1.214864E-02	    6.022430E-05	    0.000000E+00	    0.000000E+00	    1.000000E-03	    1.000000E-03	    1.000000E+03	    0.000000E+00	    0.000000E+00	    0.000000E+00	    0.000000E+00	
   -1.214823E-02	    6.021683E-05	    0.000000E+00	    0.000000E+00	    1.000000E-03	    1.000000E-03	    1.000000E+03	    0.000000E+00	    0.000000E+00	    0.000000E+00	    0.000000E+00	
   -1.214788E-02	    7.586052E-05	    5.245552E-05	   -1.000000E+00	    1.000504E-03	    1.000000E-03	    1.000000E+03	    2.289309E-06	    3.948756E-04	    6.129975E+00	    1.038799E+04	
   -1.214679E-02	    1.200973E-04	    1.645283E-04	   -1.000000E+00	    1.000539E-03	    1.000000E-03	    1.000000E+03	    2.448693E-06	    1.802498E-04	    1.194147E+00	    4.100430E+04	
   -1.214476E-02	    1.887422E-04	    3.116493E-04	   -1.000000E+00	    1.000920E-03	    1.000000E-03	    1.000000E+03	    4.183021E-06	    2.129599E-04	    9.757714E-01	    5.953515E+04	
   -1.214094E-02	    2.931200E-04	    5.195545E-04	   -1.000000E+00	    1.001665E-03	    1.000000E-03	    1.000000E+03	    7.566042E-06	    2.888531E-04	    9.924941E-01	    6.853742E+04	
   -1.213361E-02	    4.479957E-04	    8.155833E-04	   -1.000000E+00	    1.002887E-03	    1.000000E-03	    1.000000E+03	    1.312295E-05	    3.719702E-04	    9.489153E-01	    7.218579E+04	
   -1.211955E-02	    6.714295E-04	    1.231541E-03	   -1.000000E+00	    1.004800E-03	    1.000000E-03	    1.000000E+03	    2.181816E-05	    4.576929E-04	    8.641177E-01	    7.308986E+04	
   -1.209293E-02	    9.838410E-04	    1.803985E-03	   -1.000000E+00	    1.007673E-03	    1.000000E-03	    1.000000E+03	    3.487502E-05	    5.445560E-04	    7.652672E-01	    7.275507E+04	
   -1.204401E-02	    1.406019E-03	    2.569742E-03	   -1.000000E+00	    1.011796E-03	    1.000000E-03	    1.000000E+03	    5.361793E-05	    6.300847E-04	    6.663929E-01	    7.184998E+04	
   -1.195765E-02	    1.955950E-03	    3.559732E-03	   -1.000000E+00	    1.017438E-03	    1.000000E-03	    1.000000E+03	    7.926310E-05	    7.113033E-04	    5.744882E-01	    7.060174E+04	
   -1.181256E-02	    2.644593E-03	    4.791525E-03	   -1.000000E+00	    1.024784E-03	    1.000000E-03	    1.000000E+03	    1.126538E-04	    7.856627E-04	    4.931383E-01	    6.904802E+04	
   -1.158209E-02	    3.471175E-03	    6.261436E-03	   -1.000000E+00	    1.033875E-03	    1.000000E-03	    1.000000E+03	    1.539781E-04	    8.515824E-04	    4.238740E-01	    6.717513E+04	
   -1.123737E-02	    4.419185E-03	    7.938319E-03	   -1.000000E+00	    1.044558E-03	    1.000000E-03	    1.000000E+03	    2.025371E-04	    9.085661E-04	    3.668183E-01	    6.501350E+04	
   -1.075321E-02	    5.454763E-03	    9.761623E-03	   -1.000000E+00	    1.056462E-03	    1.000000E-03	    1.000000E+03	    2.566475E-04	    9.569802E-04	    3.211526E-01	    6.267999E+04	
   -1.011527E-02	    6.529136E-03	    1.164594E-02	   -1.000000E+00	    1.069021E-03	    1.000000E-03	    1.000000E+03	    3.137330E-04	    9.975378E-04	    2.854572E-01	    6.034630E+04	
   -9.326135E-03	    7.585587E-03	    1.349306E-02	   -1.000000E+00	    1.081545E-03	    1.000000E-03	    1.000000E+03	    3.706588E-04	    1.030942E-03	    2.580695E-01	    5.817586E+04	
   -8.407302E-03	    8.569391E-03	    1.520891E-02	   -1.000000E+00	    1.093341E-03	    1.000000E-03	    1.000000E+03	    4.242778E-04	    1.057854E-03	    2.373799E-01	    5.628041E+04	
   -7.395856E-03	    9.437422E-03	    1.671987E-02	   -1.000000E+00	    1.103842E-03	    1.000000E-03	    1.000000E+03	    4.720112E-04	    1.078977E-03	    2.219802E-01	    5.471077E+04	
   -6.337080E-03	    1.016411E-02	    1.798277E-02	   -1.000000E+00	    1.112693E-03	    1.000000E-03	    1.000000E+03	    5.122414E-04	    1.095087E-03	    2.107003E-01	    5.346872E+04	
   -5.275969E-03	    1.074227E-02	    1.898619E-02	   -1.000000E+00	    1.119769E-03	    1.000000E-03	    1.000000E+03	    5.444056E-04	    1.107007E-03	    2.025913E-01	    5.252515E+04	
   -4.250575E-03	    1.117974E-02	    1.974455E-02	   -1.000000E+00	    1.125142E-03	    1.000000E-03	    1.000000E+03	    5.688254E-04	    1.115541E-03	    1.968948E-01	    5.183591E+04	
   -3.288589E-03	    1.149396E-02	    2.028863E-02	   -1.000000E+00	    1.129009E-03	    1.000000E-03	    1.000000E+03	    5.864039E-04	    1.121421E-03	    1.930113E-01	    5.135292E+04	
   -2.406939E-03	    1.170666E-02	    2.065646E-02	   -1.000000E+00	    1.131630E-03	    1.000000E-03	    1.000000E+03	    5.983176E-04	    1.125278E-03	    1.904716E-01	    5.103079E+04	
   -1.613344E-03	    1.183986E-02	    2.088638E-02	   -1.000000E+00	    1.133272E-03	    1.000000E-03	    1.000000E+03	    6.057801E-04	    1.127632E-03	    1.889131E-01	    5.083003E+04	
   -9.086451E-04	    1.191341E-02	    2.101291E-02	   -1.000000E+00	    1.134177E-03	    1.000000E-03	    1.000000E+03	    6.098974E-04	    1.128894E-03	    1.880581E-01	    5.071806E+04	
   -2.891269E-04	    1.194400E-02	    2.106488E-02	   -1.000000E+00	    1.134552E-03	    1.000000E-03	    1.000000E+03	    6.116006E-04	    1.129383E-03	    1.876969E-01	    5.066887E+04	
    2.891269E-04	    1.194400E-02	    2.106488E-02	   -1.000000E+00	    1.134552E-03	    1.000000E-03	    1.000000E+03	    6.116006E-04	    1.129383E-03	    1.876969E-01	    5.066887E+04	
    9.086451E-04	    1.191341E-02	    2.101291E-02	   -1.000000E+00	    1.134177E-03	    1.000000E-03	    1.000000E+03	    6.098974E-04	    1.128894E-03	    1.880581E-01	    5.071806E+04	
    1.613344E-03	    1.183986E-02	    2.088638E-02	   -1.000000E+00	    1.133272E-03	    1.000000E-03	    1.000000E+03	    6.057801E-04	    1.127632E-03	    1.889131E-01	    5.083003E+04	
    2.406939E-03	    1.170666E-02	    2.065646E-02	   -1.000000E+00	    1.131630E-03	    1.000000E-03	    1.000000E+03	    5.983176E-04	    1.125278E-03	    1.904716E-01	    5.103079E+04	
    3.288589E-03	    1.149396E-02	    2.028863E-02	   -1.000000E+00	    1.129009E-03	    1.000000E-03	    1.000000E+03	    5.864039E-04	    1.121421E-03	    1.930113E-01	    5.135292E+04	
    4.250575E-03	    1.117974E-02	    1.974455E-02	   -1.000000E+00	    1.125142E-03	    1.000000E-03	    1.000000E+03	    5.688254E-04	    1.115541E-03	    1.968948E-01	    5.183591E+04	
    5.275969E-03	    1.074227E-02	    1.898619E-02	   -1.000000E+00	    1.119769E-03	    1.000000E-03	    1.000000E+03	    5.444056E-04	    1.107007E-03	    2.025913E-01	    5.252515E+04	
    6.337080E-03	    1.016411E-02	    1.798277E-02	   -1.000000E+00	    1.112693E-03	    1.000000E-03	    1.000000E+03	    5.122414E-04	    1.095087E-03	    2.107003E-01	    5.346872E+04	
    7.395856E-03	    9.437422E-03	    1.671987E-02	   -1.000000E+00	    1.103842E-03	    1.000000E-03	    1.000000E+03	    4.720112E-04	    1.078977E-03	    2.219802E-01	    5.471077E+04	
    8.407302E-03	    8.569391E-03	    1.520891E-02	   -1.000000E+00	    1.093341E-03	    1.000000E-03	    1.000000E+03	    4.242778E-04	    1.057854E-03	    2.373799E-01	    5.628041E+04	
    9.326135E-03	    7.585587E-03	    1.349306E-02	   -1.000000E+00	    1.081545E-03	    1.000000E-03	    1.000000E+03	    3.706588E-04	    1.030942E-03	    2.580695E-01	    5.817586E+04	
    1.011527E-02	    6.529136E-03	    1.164594E-02	   -1.000000E+00	    1.069021E-03	    1.000000E-03	    1.000000E+03	    3.137330E-04	    9.975378E-04	    2.854572E-01	    6.034630E+04	
    1.075321E-02	    5.454763E-03	    9.761623E-03	   -1.000000E+00	    1.056462E-03	    1.000000E-03	    1.000000E+03	    2.566475E-04	    9.569802E-04	    3.211526E-01	    6.267999E+04	
    1.123737E-02	    4.419185E-03	    7.938319E-03	   -1.000000E+00	    1.044558E-03	    1.000000E-03	    1.000000E+03	    2.025371E-04	    9.085661E-04	    3.668183E-01	    6.501350E+04	
    1.158209E-02	    3.471175E-03	    6.261436E-03	   -1.000000E+00	    1.033875E-03	    1.000000E-03	    1.000000E+03	    1.539781E-04	    8.515824E-04	    4.238740E-01	    6.717513E+04	
    1.181256E-02	    2.644593E-03	    4.791525E-03	   -1.000000E+00	    1.024784E-03	    1.000000E-03	    1.000000E+03	    1.126538E-04	    7.856627E-04	    4.931383E-01	    6.904802E+04	
    1.195765E-02	    1.955950E-03	    3.559732E-03	   -1.000000E+00	    1.017438E-03	    1.000000E-03	    1.000000E+03	    7.926310E-05	    7.113033E-04	    5.744882E-01	    7.060174E+04	
    1.204401E-02	    1.406019E-03	    2.569742E-03	   -1.000000E+00	    1.011796E-03	    1.000000E-03	    1.000000E+03	    5.361793E-05	    6.300847E-04	    6.663929E-01	    7.184998E+04	
    1.209293E-02	    9.838410E-04	    1.803985E-03	   -1.000000E+00	    1.007673E-03	    1.000000E-03	    1.000000E+03	    3.487502E-05	    5.445560E-04	    7.652672E-01	    7.275507E+04	
    1.211955E-02	    6.714295E-04	    1.231541E-03	   -1.000000E+00	    1.004800E-03	    1.000000E-03	    1.000000E+03	    2.181816E-05	    4.576929E-04	    8.641177E-01	    7.308986E+04	
    1.213361E-02	    4.479957E-04	    8.155833E-04	   -1.000000E+00	    1.002887E-03	    1.000000E-03	    1.000000E+03	    1.312295E-05	    3.719702E-04	    9.489153E-01	    7.218579E+04	
    1.214094E-02	    2.931200E-04	    5.195545E-04	   -1.000000E+00	    1.001665E-03	    1.000000E-03	    1.000000E+03	    7.566042E-06	    2.888531E-04	    9.924941E-01	    6.853742E+04	
    1.214476E-02	    1.887422E-04	    3.116493E-04	   -1.000000E+00	    1.000920E-03	    1.000000E-03	    1.000000E+03	    4.183021E-06	    2.129599E-04	    9.757714E-01	    5.953515E+04	
    1.214679E-02	    1.200973E-04	    1.645283E-04	   -1.000000E+00	    1.000539E-03	    1.000000E-03	    1.000000E+03	    2.448693E-06	    1.802498E-04	    1.194147E+00	    4.100430E+04	
    1.214788E-02	    7.586052E-05	    5.245552E-05	   -1.000000E+00	    1.000504E-03	    1.000000E-03	    1.000000E+03	    2.289309E-06	    3.948756E-04	    6.129975E+00	    1.038799E+04	
    1.214823E-02	    6.021683E-05	    0.000000E+00	    0.000000E+00	    1.000000E-03	    1.000000E-03	    1.000000E+03	    0.000000E+00	    0.000000E+00	    0.000000E+00	    0.000000E+00	
   -1.214729E-02	    6.018900E-05	    0.000000E+00	    0.000000E+00	    1.000000E-03	    1.000000E-03	    1.000000E+03	    0.000000E+00	    0.000000E+00	    0.000000E+00	    0.000000E+00	
   -1.214670E-02	    7.582392E-05	    1.729608E-04	   -1.000000E+00	    1.015384E-03	    1.000000E-03	    1.000000E+03	    6.992661E-05	    3.960743E-04	    2.019079E-01	    1.031417E+04	
   -1.214491E-02	    1.200325E-04	    5.449267E-04	   -1.000000E+00	    1.000571E-03	    1.000000E-03	    1.000000E+03	    2.596983E-06	    1.700129E-04	    1.001699E+00	    4.099436E+04	
   -1.214181E-02	    1.886237E-04	    1.031854E-03	   -1.000000E+00	    1.000943E-03	    1.000000E-03	    1.000000E+03	    4.285869E-06	    1.922382E-04	    7.760379E-01	    5.945730E+04	
   -1.213636E-02	    2.928967E-04	    1.719067E-03	   -1.000000E+00	    1.001726E-03	    1.000000E-03	    1.000000E+03	    7.845721E-06	    2.525774E-04	    7.318104E-01	    6.836550E+04	
   -1.212662E-02	    4.475651E-04	    2.695550E-03	   -1.000000E+00	    1.003078E-03	    1.000000E-03	    1.000000E+03	    1.399314E-05	    3.157909E-04	    6.413962E-01	    7.186085E+04	
   -1.210908E-02	    6.705914E-04	    4.063108E-03	   -1.000000E+00	    1.005366E-03	    1.000000E-03	    1.000000E+03	    2.439084E-05	    3.790867E-04	    5.302650E-01	    7.249940E+04	
   -1.207763E-02	    9.822180E-04	    5.935326E-03	   -1.000000E+00	    1.009243E-03	    1.000000E-03	    1.000000E+03	    4.201189E-05	    4.449547E-04	    4.241327E-01	    7.167765E+04	
   -1.202224E-02	    1.402938E-03	    8.419166E-03	   -1.000000E+00	    1.015856E-03	    1.000000E-03	    1.000000E+03	    7.207315E-05	    5.173271E-04	    3.341946E-01	    6.985491E+04	
   -1.192760E-02	    1.950285E-03	    1.158880E-02	   -1.000000E+00	    1.027144E-03	    1.000000E-03	    1.000000E+03	    1.233840E-04	    6.009578E-04	    2.634340E-01	    6.695956E+04	
   -1.177247E-02	    2.634602E-03	    1.545385E-02	   -1.000000E+00	    1.046005E-03	    1.000000E-03	    1.000000E+03	    2.091126E-04	    6.997239E-04	    2.107249E-01	    6.284939E+04	
   -1.153055E-02	    3.454397E-03	    1.993060E-02	   -1.000000E+00	    1.075784E-03	    1.000000E-03	    1.000000E+03	    3.444706E-04	    8.138973E-04	    1.730731E-01	    5.771604E+04	
   -1.117378E-02	    4.392487E-03	    2.483592E-02	   -1.000000E+00	    1.118716E-03	    1.000000E-03	    1.000000E+03	    5.396168E-04	    9.385443E-04	    1.469151E-01	    5.209485E+04	
   -1.067819E-02	    5.414629E-03	    2.991607E-02	   -1.000000E+00	    1.174238E-03	    1.000000E-03	    1.000000E+03	    7.919887E-04	    1.065249E-03	    1.289514E-01	    4.658659E+04	
   -1.003092E-02	    6.472204E-03	    3.489730E-02	   -1.000000E+00	    1.238738E-03	    1.000000E-03	    1.000000E+03	    1.085173E-03	    1.185563E-03	    1.165717E-01	    4.163411E+04	
   -9.235913E-03	    7.509312E-03	    3.953445E-02	   -1.000000E+00	    1.306840E-03	    1.000000E-03	    1.000000E+03	    1.394726E-03	    1.293290E-03	    1.079309E-01	    3.745944E+04	
   -8.315535E-03	    8.472593E-03	    4.364414E-02	   -1.000000E+00	    1.373057E-03	    1.000000E-03	    1.000000E+03	    1.695715E-03	    1.385032E-03	    1.018144E-01	    3.410626E+04	
   -7.307050E-03	    9.320514E-03	    4.711999E-02	   -1.000000E+00	    1.433006E-03	    1.000000E-03	    1.000000E+03	    1.968208E-03	    1.459800E-03	    9.744466E-02	    3.151169E+04	
   -6.255204E-03	    1.002892E-02	    4.993112E-02	   -1.000000E+00	    1.483961E-03	    1.000000E-03	    1.000000E+03	    2.199822E-03	    1.518349E-03	    9.431878E-02	    2.956528E+04	
   -5.203978E-03	    1.059161E-02	    5.210800E-02	   -1.000000E+00	    1.524864E-03	    1.000000E-03	    1.000000E+03	    2.385746E-03	    1.562497E-03	    9.209935E-02	    2.814582E+04	
   -4.190247E-03	    1.101682E-02	    5.372178E-02	   -1.000000E+00	    1.555974E-03	    1.000000E-03	    1.000000E+03	    2.527155E-03	    1.594544E-03	    9.054904E-02	    2.714023E+04	
   -3.240621E-03	    1.132195E-02	    5.486360E-02	   -1.000000E+00	    1.578384E-03	    1.000000E-03	    1.000000E+03	    2.629019E-03	    1.616861E-03	    8.949402E-02	    2.645139E+04	
   -2.371191E-03	    1.152836E-02	    5.562812E-02	   -1.000000E+00	    1.593576E-03	    1.000000E-03	    1.000000E+03	    2.698073E-03	    1.631628E-03	    8.880371E-02	    2.599978E+04	
   -1.589115E-03	    1.165755E-02	    5.610294E-02	   -1.000000E+00	    1.603093E-03	    1.000000E-03	    1.000000E+03	    2.741331E-03	    1.640718E-03	    8.837897E-02	    2.572235E+04	
   -8.949153E-04	    1.172889E-02	    5.636313E-02	   -1.000000E+00	    1.608344E-03	    1.000000E-03	    1.000000E+03	    2.765201E-03	    1.645659E-03	    8.814458E-02	    2.557025E+04	
   -2.847470E-04	    1.175854E-02	    5.646958E-02	   -1.000000E+00	    1.610515E-03	    1.000000E-03	    1.000000E+03	    2.775069E-03	    1.647654E-03	    8.804418E-02	    2.550628E+04	
    2.847470E-04	    1.175854E-02	    5.646958E-02	   -1.000000E+00	    1.610515E-03	    1.000000E-03	    1.000000E+03	    2.775069E-03	    1.647654E-03	    8.804418E-02	    2.550628E+04	
    8.949153E-04	    1.172889E-02	    5.636313E-02	   -1.000000E+00	    1.608344E-03	    1.000000E-03	    1.000000E+03	    2.765201E-03	    1.645659E-03	    8.814458E-02	    2.557025E+04	
    1.589115E-03	    1.165755E-02	    5.610294E-02	   -1.000000E+00	    1.603093E-03	    1.000000E-03	    1.000000E+03	    2.741331E-03	    1.640718E-03	    8.837897E-02	    2.572235E+04	
    2.371191E-03	    1.152836E-02	    5.562812E-02	   -1.000000E+00	    1.593576E-03	    1.000000E-03	    1.000000E+03	    2.698073E-03	    1.631628E-03	    8.880371E-02	    2.599978E+04	
    3.240621E-03	    1.132195E-02	    5.486360E-02	   -1.000000E+00	    1.578384E-03	    1.000000E-03	    1.000000E+03	    2.629019E-03	    1.616861E-03	    8.949402E-02	    2.645139E+04	
    4.190247E-03	    1.101682E-02	    5.372178E-02	   -1.000000E+00	    1.555974E-03	    1.000000E-03	    1.000000E+03	    2.527155E-03	    1.594544E-03	    9.054904E-02	    2.714023E+04	
    5.203978E-03	    1.059161E-02	    5.210800E-02	   -1.000000E+00	    1.524864E-03	    1.000000E-03	    1.000000E+03	    2.385746E-03	    1.562497E-03	    9.209935E-02	    2.814582E+04	
    6.255204E-03	    1.002892E-02	    4.993112E-02	   -1.000000E+00	    1.483961E-03	    1.000000E-03	    1.000000E+03	    2.199822E-03	    1.518349E-03	    9.431878E-02	    2.956528E+04	
    7.307050E-03	    9.320514E-03	    4.711999E-02	   -1.000000E+00	    1.433006E-03	    1.000000E-03	    1.000000E+03	    1.968208E-03	    1.459800E-03	    9.744466E-02	    3.151169E+04	
    8.315535E-03	    8.472593E-03	    4.364414E-02	   -1.000000E+00	    1.373057E-03	    1.000000E-03	    1.000000E+03	    1.695715E-03	    1.385032E-03	    1.018144E-01	    3.410626E+04	
    9.235913E-03	    7.509312E-03	    3.953445E-02	   -1.000000E+00	    1.306840E-03	    1.000000E-03	    1.000000E+03	    1.394726E-03	    1.293290E-03	    1.079309E-01	    3.745944E+04	
    1.003092E-02	    6.472204E-03	    3.489730E-02	   -1.000000E+00	    1.238738E-03	    1.000000E-03	    1.000000E+03	    1.085173E-03	    1.185563E-03	    1.165717E-01	    4.163411E+04	
    1.067819E-02	    5.414629E-03	    2.991607E-02	   -1.000000E+00	    1.174238E-03	    1.000000E-03	    1.000000E+03	    7.919887E-04	    1.065249E-03	    1.289514E-01	    4.658659E+04	
    1.117378E-02	    4.392487E-03	    2.483592E-02	   -1.000000E+00	    1.118716E-03	    1.000000E-03	    1.000000E+03	    5.396168E-04	    9.385443E-04	    1.469151E-01	    5.209485E+04	
    1.153055E-02	    3.454397E-03	    1.993060E-02	   -1.000000E+00	    1.075784E-03	    1.000000E-03	    1.000000E+03	    3.444706E-04	    8.138973E-04	    1.730731E-01	    5.771604E+04	
    1.177247E-02	    2.634602E-03	    1.545385E-02	   -1.000000E+00	    1.046005E-03	    1.000000E-03	    1.000000E+03	    2.091126E-04	    6.997239E-04	    2.107249E-01	    6.284939E+04	
    1.192760E-02	    1.950285E-03	    1.158880E-02	   -1.000000E+00	    1.027144E-03	    1.000000E-03	    1.000000E+03	    1.233840E-04	    6.009578E-04	    2.634340E-01	    6.695956E+04	
    1.202224E-02	    1.402938E-03	    8.419166E-03	   -1.000000E+00	    1.015856E-03	    1.000000E-03	    1.000000E+03	    7.207315E-05	    5.173271E-04	    3.341946E-01	    6.985491E+04	
    1.207763E-02	    9.822180E-04	    5.935326E-03	   -1.000000E+00	    1.009243E-03	    1.000000E-03	    1.000000E+03	    4.201189E-05	    4.449547E-04	    4.241327E-01	    7.167765E+04	
    1.210908E-02	    6.705914E-04	    4.063108E-03	   -1.000000E+00	    1.005366E-03	    1.000000E-03	    1.000000E+03	    2.439084E-05	    3.790867E-04	    5.302650E-01	    7.249940E+04	
    1.212662E-02	    4.475651E-04	    2.695550E-03	   -1.000000E+00	    1.003078E-03	    1.000000E-03	    1.000000E+03	    1.399314E-05	    3.157909E-04	    6.413962E-01	    7.186085E+04	
    1.213636E-02	    2.928967E-04	    1.719067E-03	   -1.000000E+00	    1.001726E-03	    1.000000E-03	    1.000000E+03	    7.845721E-06	    2.525774E-04	    7.318104E-01	    6.836550E+04	
    1.214181E-02	    1.886237E-04	    1.031854E-03	   -1.000000E+00	    1.000943E-03	    1.000000E-03	    1.000000E+03	    4.285869E-06	    1.922382E-04	    7.760379E-01	    5.945730E+04	
    1.214491E-02	    1.200325E-04	    5.449267E-04	   -1.000000E+00	    1.000571E-03	    1.000000E-03	    1.000000E+03	    2.596983E-06	    1.700129E-04	    1.001699E+00	    4.099436E+04	
    1.214670E-02	    7.582392E-05	    1.729608E-04	   -1.000000E+00	    1.015384E-03	    1.000000E-03	    1.000000E+03	    6.992661E-05	    3.960743E-04	    2.019079E-01	    1.031417E+04	
    1.214729E-02	    6.018900E-05	    0.000000E+00	    0.000000E+00	    1.000000E-03	    1.000000E-03	    1.000000E+03	    0.000000E+00	    0.000000E+00	    0.000000E+00	    0.000000E+00	
   -1.214606E-02	    6.013027E-05	    0.000000E+00	    0.000000E+00	    1.000000E-03	    1.000000E-03	    1.000000E+03	    0.000000E+00	    0.000000E+00	    0.000000E+00	    0.000000E+00	
   -1.214514E-02	    7.574794E-05	    3.293160E-04	   -1.000000E+00	    1.015426E-03	    1.000000E-03	    1.000000E+03	    7.011671E-05	    3.983221E-04	    2.036525E-01	    1.048490E+04	