Title="Fields"
Variables="X""Y""Velocity""Phi""Effective Viscosity""Dynamic Viscosity""Density""Eddy Viscosity""K""Omega""S"
Zone I=52 J=52 F=POINT
   -1.139440E-02	    5.288348E-05	    0.000000E+00	    0.000000E+00	    1.000000E-03	    1.000000E-03	    1.000000E+03	    0.000000E+00	    0.000000E+00	    0.000000E+00	    0.000000E+00	
   -1.139948E-02	    6.665371E-05	    0.000000E+00	    0.000000E+00	    1.000000E-03	    1.000000E-03	    1.000000E+03	    0.000000E+00	    0.000000E+00	    0.000000E+00	    0.000000E+00	
   -1.141380E-02	    1.056637E-04	    0.000000E+00	    0.000000E+00	    1.000000E-03	    1.000000E-03	    1.000000E+03	    0.000000E+00	    0.000000E+00	    0.000000E+00	    0.000000E+00	
   -1.143578E-02	    1.664063E-04	    0.000000E+00	    0.000000E+00	    1.000000E-03	    1.000000E-03	    1.000000E+03	    0.000000E+00	    0.000000E+00	    0.000000E+00	    0.000000E+00	
   -1.146868E-02	    2.592570E-04	    0.000000E+00	    0.000000E+00	    1.000000E-03	    1.000000E-03	    1.000000E+03	    0.000000E+00	    0.000000E+00	    0.000000E+00	    0.000000E+00	
   -1.151631E-02	    3.981265E-04	    0.000000E+00	    0.000000E+00	    1.000000E-03	    1.000000E-03	    1.000000E+03	    0.000000E+00	    0.000000E+00	    0.000000E+00	    0.000000E+00	
   -1.158250E-02	    6.008142E-04	    0.000000E+00	    0.000000E+00	    1.000000E-03	    1.000000E-03	    1.000000E+03	    0.000000E+00	    0.000000E+00	    0.000000E+00	    0.000000E+00	
   -1.166988E-02	    8.889630E-04	    0.000000E+00	    0.000000E+00	    1.000000E-03	    1.000000E-03	    1.000000E+03	    0.000000E+00	    0.000000E+00	    0.000000E+00	    0.000000E+00	
   -1.177804E-02	    1.287411E-03	    0.000000E+00	    0.000000E+00	    1.000000E-03	    1.000000E-03	    1.000000E+03	    0.000000E+00	    0.000000E+00	    0.000000E+00	    0.000000E+00	
   -1.190082E-02	    1.822691E-03	    0.000000E+00	    0.000000E+00	    1.000000E-03	    1.000000E-03	    1.000000E+03	    0.000000E+00	    0.000000E+00	    0.000000E+00	    0.000000E+00	
   -1.202326E-02	    2.520349E-03	    0.000000E+00	    0.000000E+00	    1.000000E-03	    1.000000E-03	    1.000000E+03	    0.000000E+00	    0.000000E+00	    0.000000E+00	    0.000000E+00	
   -1.211881E-02	    3.400741E-03	    0.000000E+00	    0.000000E+00	    1.000000E-03	    1.000000E-03	    1.000000E+03	    0.000000E+00	    0.000000E+00	    0.000000E+00	    0.000000E+00	
   -1.214831E-02	    4.473191E-03	    0.000000E+00	    0.000000E+00	    1.000000E-03	    1.000000E-03	    1.000000E+03	    0.000000E+00	    0.000000E+00	    0.000000E+00	    0.000000E+00	
   -1.206216E-02	    5.729107E-03	    0.000000E+00	    0.000000E+00	    1.000000E-03	    1.000000E-03	    1.000000E+03	    0.000000E+00	    0.000000E+00	    0.000000E+00	    0.000000E+00	
   -1.180732E-02	    7.135981E-03	    0.000000E+00	    0.000000E+00	    1.000000E-03	    1.000000E-03	    1.000000E+03	    0.000000E+00	    0.000000E+00	    0.000000E+00	    0.000000E+00	
   -1.133895E-02	    8.635437E-03	    0.000000E+00	    0.000000E+00	    1.000000E-03	    1.000000E-03	    1.000000E+03	    0.000000E+00	    0.000000E+00	    0.000000E+00	    0.000000E+00	
   -1.063366E-02	    1.014846E-02	    0.000000E+00	    0.000000E+00	    1.000000E-03	    1.000000E-03	    1.000000E+03	    0.000000E+00	    0.000000E+00	    0.000000E+00	    0.000000E+00	
   -9.699179E-03	    1.158841E-02	    0.000000E+00	    0.000000E+00	    1.000000E-03	    1.000000E-03	    1.000000E+03	    0.000000E+00	    0.000000E+00	    0.000000E+00	    0.000000E+00	
   -8.575281E-03	    1.287811E-02	    0.000000E+00	    0.000000E+00	    1.000000E-03	    1.000000E-03	    1.000000E+03	    0.000000E+00	    0.000000E+00	    0.000000E+00	    0.000000E+00	
   -7.324957E-03	    1.396441E-02	    0.000000E+00	    0.000000E+00	    1.000000E-03	    1.000000E-03	    1.000000E+03	    0.000000E+00	    0.000000E+00	    0.000000E+00	    0.000000E+00	
   -6.019727E-03	    1.482466E-02	    0.000000E+00	    0.000000E+00	    1.000000E-03	    1.000000E-03	    1.000000E+03	    0.000000E+00	    0.000000E+00	    0.000000E+00	    0.000000E+00	
   -4.725438E-03	    1.546415E-02	    0.000000E+00	    0.000000E+00	    1.000000E-03	    1.000000E-03	    1.000000E+03	    0.000000E+00	    0.000000E+00	    0.000000E+00	    0.000000E+00	
   -3.493148E-03	    1.590776E-02	    0.000000E+00	    0.000000E+00	    1.000000E-03	    1.000000E-03	    1.000000E+03	    0.000000E+00	    0.000000E+00	    0.000000E+00	    0.000000E+00	
   -2.356166E-03	    1.619008E-02	    0.000000E+00	    0.000000E+00	    1.000000E-03	    1.000000E-03	    1.000000E+03	    0.000000E+00	    0.000000E+00	    0.000000E+00	    0.000000E+00	
   -1.331639E-03	    1.634754E-02	    0.000000E+00	    0.000000E+00	    1.000000E-03	    1.000000E-03	    1.000000E+03	    0.000000E+00	    0.000000E+00	    0.000000E+00	    0.000000E+00	
   -4.243373E-04	    1.641332E-02	    0.000000E+00	    0.000000E+00	    1.000000E-03	    1.000000E-03	    1.000000E+03	    0.000000E+00	    0.000000E+00	    0.000000E+00	    0.000000E+00	
    4.243373E-04	    1.641332E-02	    0.000000E+00	    0.000000E+00	    1.000000E-03	    1.000000E-03	    1.000000E+03	    0.000000E+00	    0.000000E+00	    0.000000E+00	    0.000000E+00	
    1.331639E-03	    1.634754E-02	    0.000000E+00	    0.000000E+00	    1.000000E-03	    1.000000E-03	    1.000000E+03	    0.000000E+00	    0.000000E+00	    0.000000E+00	    0.000000E+00	
    2.356166E-03	    1.619008E-02	    0.000000E+00	    0.000000E+00	    1.000000E-03	    1.000000E-03	    1.000000E+03	    0.000000E+00	    0.000000E+00	    0.000000E+00	    0.000000E+00	
    3.493148E-03	    1.590776E-02	    0.000000E+00	    0.000000E+00	    1.000000E-03	    1.000000E-03	    1.000000E+03	    0.000000E+00	    0.000000E+00	    0.000000E+00	    0.000000E+00	
    4.725438E-03	    1.546415E-02	    0.000000E+00	    0.000000E+00	    1.000000E-03	    1.000000E-03	    1.000000E+03	    0.000000E+00	    0.000000E+00	    0.000000E+00	    0.000000E+00	
    6.019727E-03	    1.482466E-02	    0.000000E+00	    0.000000E+00	    1.000000E-03	    1.000000E-03	    1.000000E+03	    0.000000E+00	    0.000000E+00	    0.000000E+00	    0.000000E+00	
    7.324957E-03	    1.396441E-02	    0.000000E+00	    0.000000E+00	    1.000000E-03	    1.000000E-03	    1.000000E+03	    0.000000E+00	    0.000000E+00	    0.000000E+00	    0.000000E+00	
    8.575281E-03	    1.287811E-02	    0.000000E+00	    0.000000E+00	    1.000000E-03	    1.000000E-03	    1.000000E+03	    0.000000E+00	    0.000000E+00	    0.000000E+00	    0.000000E+00	
    9.699179E-03	    1.158841E-02	    0.000000E+00	    0.000000E+00	    1.000000E-03	    1.000000E-03	    1.000000E+03	    0.000000E+00	    0.000000E+00	    0.000000E+00	    0.000000E+00	
    1.063366E-02	    1.014846E-02	    0.000000E+00	    0.000000E+00	    1.000000E-03	    1.000000E-03	    1.000000E+03	    0.000000E+00	    0.000000E+00	    0.000000E+00	    0.000000E+00	
    1.133895E-02	    8.635437E-03	    0.000000E+00	    0.000000E+00	    1.000000E-03	    1.000000E-03	    1.000000E+03	    0.000000E+00	    0.000000E+00	    0.000000E+00	    0.000000E+00	
    1.180732E-02	    7.135981E-03	    0.000000E+00	    0.000000E+00	    1.000000E-03	    1.000000E-03	    1.000000E+03	    0.000000E+00	    0.000000E+00	    0.000000E+00	    0.000000E+00	
    1.206216E-02	    5.729107E-03	    0.000000E+00	    0.000000E+00	    1.000000E-03	    1.000000E-03	    1.000000E+03	    0.000000E+00	    0.000000E+00	    0.000000E+00	    0.000000E+00	
    1.214831E-02	    4.473191E-03	    0.000000E+00	    0.000000E+00	    1.000000E-03	    1.000000E-03	    1.000000E+03	    0.000000E+00	    0.000000E+00	    0.000000E+00	    0.000000E+00	
    1.211881E-02	    3.400741E-03	    0.000000E+00	    0.000000E+00	    1.000000E-03	    1.000000E-03	    1.000000E+03	    0.000000E+00	    0.000000E+00	    0.000000E+00	    0.000000E+00	
    1.202326E-02	    2.520349E-03	    0.000000E+00	    0.000000E+00	    1.000000E-03	    1.000000E-03	    1.000000E+03	    0.000000E+00	    0.000000E+00	    0.000000E+00	    0.000000E+00	
    1.190082E-02	    1.822691E-03	    0.000000E+00	    0.000000E+00	    1.000000E-03	    1.000000E-03	    1.000000E+03	    0.000000E+00	    0.000000E+00	    0.000000E+00	    0.000000E+00	
    1.177804E-02	    1.287411E-03	    0.000000E+00	    0.000000E+00	    1.000000E-03	    1.000000E-03	    1.000000E+03	    0.000000E+00	    0.000000E+00	    0.000000E+00	    0.000000E+00	
    1.166988E-02	    8.889630E-04	    0.000000E+00	    0.000000E+00	    1.000000E-03	    1.000000E-03	    1.000000E+03	    0.000000E+00	    0.000000E+00	    0.000000E+00	    0.000000E+00	
    1.158250E-02	    6.008142E-04	    0.000000E+00	    0.000000E+00	    1.000000E-03	    1.000000E-03	    1.000000E+03	    0.000000E+00	    0.000000E+00	    0.000000E+00	    0.000000E+00	
    1.151631E-02	    3.981265E-04	    0.000000E+00	    0.000000E+00	    1.000000E-03	    1.000000E-03	    1.000000E+03	    0.000000E+00	    0.000000E+00	    0.000000E+00	    0.000000E+00	
    1.146868E-02	    2.592570E-04	    0.000000E+00	    0.000000E+00	    1.000000E-03	    1.000000E-03	    1.000000E+03	    0.000000E+00	    0.000000E+00	    0.000000E+00	    0.000000E+00	
    1.143578E-02	    1.664063E-04	    0.000000E+00	    0.000000E+00	    1.000000E-03	    1.000000E-03	    1.000000E+03	    0.000000E+00	    0.000000E+00	    0.000000E+00	    0.000000E+00	
    1.141380E-02	    1.056637E-04	    0.000000E+00	    0.000000E+00	    1.000000E-03	    1.000000E-03	    1.000000E+03	    0.000000E+00	    0.000000E+00	    0.000000E+00	    0.000000E+00	
    1.139948E-02	    6.665371E-05	    0.000000E+00	    0.000000E+00	    1.000000E-03	    1.000000E-03	    1.000000E+03	    0.000000E+00	    0.000000E+00	    0.000000E+00	    0.000000E+00	
    1.139440E-02	    5.288348E-05	    0.000000E+00	    0.000000E+00	    1.000000E-03	    1.000000E-03	    1.000000E+03	    0.000000E+00	    0.000000E+00	    0.000000E+00	    0.000000E+00	
   -1.139395E-02	    5.304558E-05	    0.000000E+00	    0.000000E+00	    1.000000E-03	    1.000000E-03	    1.000000E+03	    0.000000E+00	    0.000000E+00	    0.000000E+00	    0.000000E+00	
   -1.139893E-02	    6.685734E-05	    2.728883E-04	   -1.000000E+00	    1.600917E-03	    1.600000E-03	    8.010000E+02	    5.094257E-06	    2.263658E-03	    3.559283E+05	    1.382207E+05	
   -1.141291E-02	    1.059834E-04	    6.519032E-04	   -1.000000E+00	    1.600982E-03	    1.600000E-03	    8.010000E+02	    5.457487E-06	    1.033818E-03	    1.517344E+05	    3.148941E+05	
   -1.143438E-02	    1.669024E-04	    1.148191E-03	   -1.000000E+00	    1.601650E-03	    1.600000E-03	    8.010000E+02	    9.165833E-06	    1.175802E-03	    1.027531E+05	    3.936923E+05	
   -1.146649E-02	    2.600121E-04	    1.836014E-03	   -1.000000E+00	    1.602920E-03	    1.600000E-03	    8.010000E+02	    1.622237E-05	    1.517494E-03	    7.492819E+04	    4.144350E+05	
   -1.151294E-02	    3.992453E-04	    2.817483E-03	   -1.000000E+00	    1.605008E-03	    1.600000E-03	    8.010000E+02	    2.782097E-05	    1.892807E-03	    5.449624E+04	    4.133889E+05	
   -1.157738E-02	    6.024127E-04	    4.226868E-03	   -1.000000E+00	    1.608315E-03	    1.600000E-03	    8.010000E+02	    4.619587E-05	    2.291894E-03	    3.973964E+04	    4.078214E+05	
   -1.166225E-02	    8.911393E-04	    6.228550E-03	   -1.000000E+00	    1.613376E-03	    1.600000E-03	    8.010000E+02	    7.431112E-05	    2.709574E-03	    2.920651E+04	    4.034109E+05	
   -1.176689E-02	    1.290185E-03	    9.006017E-03	   -1.000000E+00	    1.620819E-03	    1.600000E-03	    8.010000E+02	    1.156624E-04	    3.130673E-03	    2.168094E+04	    4.005205E+05	
   -1.188488E-02	    1.825899E-03	    1.274648E-02	   -1.000000E+00	    1.631322E-03	    1.600000E-03	    8.010000E+02	    1.740133E-04	    3.536695E-03	    1.627975E+04	    3.979211E+05	
   -1.200099E-02	    2.523490E-03	    1.761851E-02	   -1.000000E+00	    1.645541E-03	    1.600000E-03	    8.010000E+02	    2.530072E-04	    3.912244E-03	    1.238584E+04	    3.942608E+05	
   -1.208855E-02	    3.402779E-03	    2.373985E-02	   -1.000000E+00	    1.664006E-03	    1.600000E-03	    8.010000E+02	    3.555876E-04	    4.247256E-03	    9.567410E+03	    3.884520E+05	
   -1.210844E-02	    4.472348E-03	    3.113695E-02	   -1.000000E+00	    1.686976E-03	    1.600000E-03	    8.010000E+02	    4.832021E-04	    4.536565E-03	    7.520225E+03	    3.798107E+05	
   -1.201150E-02	    5.722754E-03	    3.970359E-02	   -1.000000E+00	    1.714280E-03	    1.600000E-03	    8.010000E+02	    6.348897E-04	    4.778891E-03	    6.029223E+03	    3.682500E+05	
   -1.174562E-02	    7.120725E-03	    4.917056E-02	   -1.000000E+00	    1.745173E-03	    1.600000E-03	    8.010000E+02	    8.065158E-04	    4.975886E-03	    4.941856E+03	    3.544054E+05	
   -1.126732E-02	    8.607523E-03	    5.910909E-02	   -1.000000E+00	    1.778305E-03	    1.600000E-03	    8.010000E+02	    9.905806E-04	    5.131446E-03	    4.149372E+03	    3.395069E+05	
   -1.055481E-02	    1.010447E-02	    6.898286E-02	   -1.000000E+00	    1.811850E-03	    1.600000E-03	    8.010000E+02	    1.176944E-03	    5.250738E-03	    3.573528E+03	    3.249510E+05	
   -9.617133E-03	    1.152605E-02	    7.823989E-02	   -1.000000E+00	    1.843813E-03	    1.600000E-03	    8.010000E+02	    1.354519E-03	    5.339347E-03	    3.157444E+03	    3.118495E+05	
   -8.494745E-03	    1.279677E-02	    8.641761E-02	   -1.000000E+00	    1.872428E-03	    1.600000E-03	    8.010000E+02	    1.513491E-03	    5.402937E-03	    2.859450E+03	    3.008322E+05	
   -7.250420E-03	    1.386522E-02	    9.322284E-02	   -1.000000E+00	    1.896494E-03	    1.600000E-03	    8.010000E+02	    1.647188E-03	    5.447022E-03	    2.648797E+03	    2.920864E+05	
   -5.954739E-03	    1.471013E-02	    9.855761E-02	   -1.000000E+00	    1.915513E-03	    1.600000E-03	    8.010000E+02	    1.752848E-03	    5.476585E-03	    2.502638E+03	    2.854948E+05	
   -4.672247E-03	    1.533755E-02	    1.024913E-01	   -1.000000E+00	    1.929622E-03	    1.600000E-03	    8.010000E+02	    1.831231E-03	    5.495749E-03	    2.403899E+03	    2.807746E+05	
   -3.452713E-03	    1.577243E-02	    1.052025E-01	   -1.000000E+00	    1.939390E-03	    1.600000E-03	    8.010000E+02	    1.885498E-03	    5.507662E-03	    2.339773E+03	    2.775816E+05	
   -2.328414E-03	    1.604905E-02	    1.069190E-01	   -1.000000E+00	    1.945595E-03	    1.600000E-03	    8.010000E+02	    1.919971E-03	    5.514592E-03	    2.300654E+03	    2.755757E+05	
   -1.315803E-03	    1.620328E-02	    1.078709E-01	   -1.000000E+00	    1.949047E-03	    1.600000E-03	    8.010000E+02	    1.939151E-03	    5.518112E-03	    2.279352E+03	    2.744547E+05	
   -4.192712E-04	    1.626770E-02	    1.082632E-01	   -1.000000E+00	    1.950481E-03	    1.600000E-03	    8.010000E+02	    1.947116E-03	    5.519294E-03	    2.270514E+03	    2.739666E+05	
    4.192712E-04	    1.626770E-02	    1.082632E-01	   -1.000000E+00	    1.950481E-03	    1.600000E-03	    8.010000E+02	    1.947116E-03	    5.519294E-03	    2.270514E+03	    2.739666E+05	
    1.315803E-03	    1.620328E-02	    1.078709E-01	   -1.000000E+00	    1.949047E-03	    1.600000E-03	    8.010000E+02	    1.939151E-03	    5.518112E-03	    2.279352E+03	    2.744547E+05	
    2.328414E-03	    1.604905E-02	    1.069190E-01	   -1.000000E+00	    1.945595E-03	    1.600000E-03	    8.010000E+02	    1.919971E-03	    5.514592E-03	    2.300654E+03	    2.755757E+05	
    3.452713E-03	    1.577243E-02	    1.052025E-01	   -1.000000E+00	    1.939390E-03	    1.600000E-03	    8.010000E+02	    1.885498E-03	    5.507662E-03	    2.339773E+03	    2.775816E+05	
    4.672247E-03	    1.533755E-02	    1.024913E-01	   -1.000000E+00	    1.929622E-03	    1.600000E-03	    8.010000E+02	    1.831231E-03	    5.495749E-03	    2.403899E+03	    2.807746E+05	
    5.954739E-03	    1.471013E-02	    9.855761E-02	   -1.000000E+00	    1.915513E-03	    1.600000E-03	    8.010000E+02	    1.752848E-03	    5.476585E-03	    2.502638E+03	    2.854948E+05	
    7.250420E-03	    1.386522E-02	    9.322284E-02	   -1.000000E+00	    1.896494E-03	    1.600000E-03	    8.010000E+02	    1.647188E-03	    5.447022E-03	    2.648797E+03	    2.920864E+05	
    8.494745E-03	    1.279677E-02	    8.641761E-02	   -1.000000E+00	    1.872428E-03	    1.600000E-03	    8.010000E+02	    1.513491E-03	    5.402937E-03	    2.859450E+03	    3.008322E+05	
    9.617133E-03	    1.152605E-02	    7.823989E-02	   -1.000000E+00	    1.843813E-03	    1.600000E-03	    8.010000E+02	    1.354519E-03	    5.339347E-03	    3.157444E+03	    3.118495E+05	
    1.055481E-02	    1.010447E-02	    6.898286E-02	   -1.000000E+00	    1.811850E-03	    1.600000E-03	    8.010000E+02	    1.176944E-03	    5.250738E-03	    3.573528E+03	    3.249510E+05	
    1.126732E-02	    8.607523E-03	    5.910909E-02	   -1.000000E+00	    1.778305E-03	    1.600000E-03	    8.010000E+02	    9.905806E-04	    5.131446E-03	    4.149372E+03	    3.395069E+05	
    1.174562E-02	    7.120725E-03	    4.917056E-02	   -1.000000E+00	    1.745173E-03	    1.600000E-03	    8.010000E+02	    8.065158E-04	    4.975886E-03	    4.941856E+03	    3.544054E+05	
    1.201150E-02	    5.722754E-03	    3.970359E-02	   -1.000000E+00	    1.714280E-03	    1.600000E-03	    8.010000E+02	    6.348897E-04	    4.778891E-03	    6.029223E+03	    3.682500E+05	
    1.210844E-02	    4.472348E-03	    3.113695E-02	   -1.000000E+00	    1.686976E-03	    1.600000E-03	    8.010000E+02	    4.832021E-04	    4.536565E-03	    7.520225E+03	    3.798107E+05	
    1.208855E-02	    3.402779E-03	    2.373985E-02	   -1.000000E+00	    1.664006E-03	    1.600000E-03	    8.010000E+02	    3.555876E-04	    4.247256E-03	    9.567410E+03	    3.884520E+05	
    1.200099E-02	    2.523490E-03	    1.761851E-02	   -1.000000E+00	    1.645541E-03	    1.600000E-03	    8.010000E+02	    2.530072E-04	    3.912244E-03	    1.238584E+04	    3.942608E+05	
    1.188488E-02	    1.825899E-03	    1.274648E-02	   -1.000000E+00	    1.631322E-03	    1.600000E-03	    8.010000E+02	    1.740133E-04	    3.536695E-03	    1.627975E+04	    3.979211E+05	
    1.176689E-02	    1.290185E-03	    9.006017E-03	   -1.000000E+00	    1.620819E-03	    1.600000E-03	    8.010000E+02	    1.156624E-04	    3.130673E-03	    2.168094E+04	    4.005205E+05	
    1.166225E-02	    8.911393E-04	    6.228550E-03	   -1.000000E+00	    1.613376E-03	    1.600000E-03	    8.010000E+02	    7.431112E-05	    2.709574E-03	    2.920651E+04	    4.034109E+05	
    1.157738E-02	    6.024127E-04	    4.226868E-03	   -1.000000E+00	    1.608315E-03	    1.600000E-03	    8.010000E+02	    4.619587E-05	    2.291894E-03	    3.973964E+04	    4.078214E+05	
    1.151294E-02	    3.992453E-04	    2.817483E-03	   -1.000000E+00	    1.605008E-03	    1.600000E-03	    8.010000E+02	    2.782097E-05	    1.892807E-03	    5.449624E+04	    4.133889E+05	
    1.146649E-02	    2.600121E-04	    1.836014E-03	   -1.000000E+00	    1.602920E-03	    1.600000E-03	    8.010000E+02	    1.622237E-05	    1.517494E-03	    7.492819E+04	    4.144350E+05	
    1.143438E-02	    1.669024E-04	    1.148191E-03	   -1.000000E+00	    1.601650E-03	    1.600000E-03	    8.010000E+02	    9.165833E-06	    1.175802E-03	    1.027531E+05	    3.936923E+05	
    1.141291E-02	    1.059834E-04	    6.519032E-04	   -1.000000E+00	    1.600982E-03	    1.600000E-03	    8.010000E+02	    5.457487E-06	    1.033818E-03	    1.517344E+05	    3.148941E+05	
    1.139893E-02	    6.685734E-05	    2.728883E-04	   -1.000000E+00	    1.600917E-03	    1.600000E-03	    8.010000E+02	    5.094257E-06	    2.263658E-03	    3.559283E+05	    1.382207E+05	
    1.139395E-02	    5.304558E-05	    0.000000E+00	    0.000000E+00	    1.000000E-03	    1.000000E-03	    1.000000E+03	    0.000000E+00	    0.000000E+00	    0.000000E+00	    0.000000E+00	
   -1.139292E-02	    5.340641E-05	    0.000000E+00	    0.000000E+00	    1.000000E-03	    1.000000E-03	    1.000000E+03	    0.000000E+00	    0.000000E+00	    0.000000E+00	    0.000000E+00	
   -1.139762E-02	    6.731053E-05	    6.649136E-04	   -1.000000E+00	    1.622518E-03	    1.600000E-03	    8.010000E+02	    1.251014E-04	    2.245120E-03	    1.437506E+04	    8.149670E+04	
   -1.141084E-02	    1.066947E-04	    1.593759E-03	   -1.000000E+00	    1.601028E-03	    1.600000E-03	    8.010000E+02	    5.708567E-06	    9.314004E-04	    1.306898E+05	    1.863075E+05	
   -1.143112E-02	    1.680051E-04	    2.806168E-03	   -1.000000E+00	    1.601662E-03	    1.600000E-03	    8.010000E+02	    9.233357E-06	    9.882133E-04	    8.572817E+04	    2.325927E+05	
   -1.146140E-02	    2.616884E-04	    4.484407E-03	   -1.000000E+00	    1.602938E-03	    1.600000E-03	    8.010000E+02	    1.632377E-05	    1.203900E-03	    5.907483E+04	    2.444643E+05	
   -1.150510E-02	    4.017237E-04	    6.874632E-03	   -1.000000E+00	    1.605064E-03	    1.600000E-03	    8.010000E+02	    2.813176E-05	    1.410980E-03	    4.017505E+04	    2.432878E+05	
   -1.156548E-02	    6.059423E-04	    1.029717E-02	   -1.000000E+00	    1.608494E-03	    1.600000E-03	    8.010000E+02	    4.719108E-05	    1.597574E-03	    2.711649E+04	    2.391557E+05	
   -1.164454E-02	    8.959194E-04	    1.513704E-02	   -1.000000E+00	    1.613931E-03	    1.600000E-03	    8.010000E+02	    7.739648E-05	    1.767132E-03	    1.828859E+04	    2.352361E+05	
   -1.174103E-02	    1.296224E-03	    2.180934E-02	   -1.000000E+00	    1.622462E-03	    1.600000E-03	    8.010000E+02	    1.247864E-04	    1.930207E-03	    1.238994E+04	    2.314130E+05	
   -1.184795E-02	    1.832773E-03	    3.070899E-02	   -1.000000E+00	    1.635900E-03	    1.600000E-03	    8.010000E+02	    1.994459E-04	    2.111167E-03	    8.478717E+03	    2.263357E+05	
   -1.194951E-02	    2.529987E-03	    4.213611E-02	   -1.000000E+00	    1.657408E-03	    1.600000E-03	    8.010000E+02	    3.189354E-04	    2.349001E-03	    5.899470E+03	    2.181354E+05	
   -1.201873E-02	    3.406448E-03	    5.619025E-02	   -1.000000E+00	    1.692184E-03	    1.600000E-03	    8.010000E+02	    5.121318E-04	    2.688388E-03	    4.204775E+03	    2.050061E+05	
   -1.201670E-02	    4.469059E-03	    7.265259E-02	   -1.000000E+00	    1.747345E-03	    1.600000E-03	    8.010000E+02	    8.185813E-04	    3.161339E-03	    3.093440E+03	    1.865487E+05	
   -1.189529E-02	    5.706457E-03	    9.091888E-02	   -1.000000E+00	    1.829731E-03	    1.600000E-03	    8.010000E+02	    1.276282E-03	    3.765885E-03	    2.363485E+03	    1.646267E+05	
   -1.160456E-02	    7.083705E-03	    1.100548E-01	   -1.000000E+00	    1.941963E-03	    1.600000E-03	    8.010000E+02	    1.899796E-03	    4.458478E-03	    1.879802E+03	    1.422494E+05	
   -1.110416E-02	    8.541355E-03	    1.289804E-01	   -1.000000E+00	    2.079740E-03	    1.600000E-03	    8.010000E+02	    2.665224E-03	    5.171107E-03	    1.554112E+03	    1.219087E+05	
   -1.037583E-02	    1.000161E-02	    1.466888E-01	   -1.000000E+00	    2.232554E-03	    1.600000E-03	    8.010000E+02	    3.514190E-03	    5.838511E-03	    1.330789E+03	    1.049031E+05	
   -9.431561E-03	    1.138156E-02	    1.624029E-01	   -1.000000E+00	    2.386957E-03	    1.600000E-03	    8.010000E+02	    4.371983E-03	    6.416111E-03	    1.175509E+03	    9.151190E+04	
   -8.313145E-03	    1.260953E-02	    1.756501E-01	   -1.000000E+00	    2.530334E-03	    1.600000E-03	    8.010000E+02	    5.168524E-03	    6.884212E-03	    1.066891E+03	    8.142208E+04	
   -7.082779E-03	    1.363801E-02	    1.862686E-01	   -1.000000E+00	    2.653636E-03	    1.600000E-03	    8.010000E+02	    5.853534E-03	    7.243153E-03	    9.911560E+02	    7.408173E+04	
   -5.808872E-03	    1.444871E-02	    1.943589E-01	   -1.000000E+00	    2.752397E-03	    1.600000E-03	    8.010000E+02	    6.402205E-03	    7.505303E-03	    9.390120E+02	    6.890850E+04	
   -4.553038E-03	    1.504925E-02	    2.002022E-01	   -1.000000E+00	    2.826246E-03	    1.600000E-03	    8.010000E+02	    6.812478E-03	    7.687930E-03	    9.039343E+02	    6.538459E+04	
   -3.362188E-03	    1.546477E-02	    2.041723E-01	   -1.000000E+00	    2.877611E-03	    1.600000E-03	    8.010000E+02	    7.097840E-03	    7.808553E-03	    8.812048E+02	    6.308584E+04	
   -2.266324E-03	    1.572877E-02	    2.066621E-01	   -1.000000E+00	    2.910326E-03	    1.600000E-03	    8.010000E+02	    7.279591E-03	    7.882635E-03	    8.673551E+02	    6.167976E+04	
   -1.280388E-03	    1.587585E-02	    2.080343E-01	   -1.000000E+00	    2.928552E-03	    1.600000E-03	    8.010000E+02	    7.380845E-03	    7.922826E-03	    8.598180E+02	    6.091223E+04	
   -4.079426E-04	    1.593726E-02	    2.085973E-01	   -1.000000E+00	    2.936114E-03	    1.600000E-03	    8.010000E+02	    7.422856E-03	    7.939007E-03	    8.566979E+02	    6.059234E+04	
    4.079426E-04	    1.593726E-02	    2.085973E-01	   -1.000000E+00	    2.936114E-03	    1.600000E-03	    8.010000E+02	    7.422856E-03	    7.939007E-03	    8.566979E+02	    6.059234E+04	
    1.280388E-03	    1.587585E-02	    2.080343E-01	   -1.000000E+00	    2.928552E-03	    1.600000E-03	    8.010000E+02	    7.380845E-03	    7.922826E-03	    8.598180E+02	    6.091223E+04	
    2.266324E-03	    1.572877E-02	    2.066621E-01	   -1.000000E+00	    2.910326E-03	    1.600000E-03	    8.010000E+02	    7.279591E-03	    7.882635E-03	    8.673551E+02	    6.167976E+04	
    3.362188E-03	    1.546477E-02	    2.041723E-01	   -1.000000E+00	    2.877611E-03	    1.600000E-03	    8.010000E+02	    7.097840E-03	    7.808553E-03	    8.812048E+02	    6.308584E+04	
    4.553038E-03	    1.504925E-02	    2.002022E-01	   -1.000000E+00	    2.826246E-03	    1.600000E-03	    8.010000E+02	    6.812478E-03	    7.687930E-03	    9.039343E+02	    6.538459E+04	
    5.808872E-03	    1.444871E-02	    1.943589E-01	   -1.000000E+00	    2.752397E-03	    1.600000E-03	    8.010000E+02	    6.402205E-03	    7.505303E-03	    9.390120E+02	    6.890850E+04	
    7.082779E-03	    1.363801E-02	    1.862686E-01	   -1.000000E+00	    2.653636E-03	    1.600000E-03	    8.010000E+02	    5.853534E-03	    7.243153E-03	    9.911560E+02	    7.408173E+04	
    8.313145E-03	    1.260953E-02	    1.756501E-01	   -1.000000E+00	    2.530334E-03	    1.600000E-03	    8.010000E+02	    5.168524E-03	    6.884212E-03	    1.066891E+03	    8.142208E+04	
    9.431561E-03	    1.138156E-02	    1.624029E-01	   -1.000000E+00	    2.386957E-03	    1.600000E-03	    8.010000E+02	    4.371983E-03	    6.416111E-03	    1.175509E+03	    9.151190E+04	
    1.037583E-02	    1.000161E-02	    1.466888E-01	   -1.000000E+00	    2.232554E-03	    1.600000E-03	    8.010000E+02	    3.514190E-03	    5.838511E-03	    1.330789E+03	    1.049031E+05	
    1.110416E-02	    8.541355E-03	    1.289804E-01	   -1.000000E+00	    2.079740E-03	    1.600000E-03	    8.010000E+02	    2.665224E-03	    5.171107E-03	    1.554112E+03	    1.219087E+05	
    1.160456E-02	    7.083705E-03	    1.100548E-01	   -1.000000E+00	    1.941963E-03	    1.600000E-03	    8.010000E+02	    1.899796E-03	    4.458478E-03	    1.879802E+03	    1.422494E+05	
    1.189529E-02	    5.706457E-03	    9.091888E-02	   -1.000000E+00	    1.829731E-03	    1.600000E-03	    8.010000E+02	    1.276282E-03	    3.765885E-03	    2.363485E+03	    1.646267E+05	
    1.201670E-02	    4.469059E-03	    7.265259E-02	   -1.000000E+00	    1.747345E-03	    1.600000E-03	    8.010000E+02	    8.185813E-04	    3.161339E-03	    3.093440E+03	    1.865487E+05	
    1.201873E-02	    3.406448E-03	    5.619025E-02	   -1.000000E+00	    1.692184E-03	    1.600000E-03	    8.010000E+02	    5.121318E-04	    2.688388E-03	    4.204775E+03	    2.050061E+05	
    1.194951E-02	    2.529987E-03	    4.213611E-02	   -1.000000E+00	    1.657408E-03	    1.600000E-03	    8.010000E+02	    3.189354E-04	    2.349001E-03	    5.899470E+03	    2.181354E+05	
    1.184795E-02	    1.832773E-03	    3.070899E-02	   -1.000000E+00	    1.635900E-03	    1.600000E-03	    8.010000E+02	    1.994459E-04	    2.111167E-03	    8.478717E+03	    2.263357E+05	
    1.174103E-02	    1.296224E-03	    2.180934E-02	   -1.000000E+00	    1.622462E-03	    1.600000E-03	    8.010000E+02	    1.247864E-04	    1.930207E-03	    1.238994E+04	    2.314130E+05	
    1.164454E-02	    8.959194E-04	    1.513704E-02	   -1.000000E+00	    1.613931E-03	    1.600000E-03	    8.010000E+02	    7.739648E-05	    1.767132E-03	    1.828859E+04	    2.352361E+05	
    1.156548E-02	    6.059423E-04	    1.029717E-02	   -1.000000E+00	    1.608494E-03	    1.600000E-03	    8.010000E+02	    4.719108E-05	    1.597574E-03	    2.711649E+04	    2.391557E+05	
    1.150510E-02	    4.017237E-04	    6.874632E-03	   -1.000000E+00	    1.605064E-03	    1.600000E-03	    8.010000E+02	    2.813176E-05	    1.410980E-03	    4.017505E+04	    2.432878E+05	
    1.146140E-02	    2.616884E-04	    4.484407E-03	   -1.000000E+00	    1.602938E-03	    1.600000E-03	    8.010000E+02	    1.632377E-05	    1.203900E-03	    5.907483E+04	    2.444643E+05	
    1.143112E-02	    1.680051E-04	    2.806168E-03	   -1.000000E+00	    1.601662E-03	    1.600000E-03	    8.010000E+02	    9.233357E-06	    9.882133E-04	    8.572817E+04	    2.325927E+05	
    1.141084E-02	    1.066947E-04	    1.593759E-03	   -1.000000E+00	    1.601028E-03	    1.600000E-03	    8.010000E+02	    5.708567E-06	    9.314004E-04	    1.306898E+05	    1.863075E+05	
    1.139762E-02	    6.731053E-05	    6.649136E-04	   -1.000000E+00	    1.622518E-03	    1.600000E-03	    8.010000E+02	    1.251014E-04	    2.245120E-03	    1.437506E+04	    8.149670E+04	
    1.139292E-02	    5.340641E-05	    0.000000E+00	    0.000000E+00	    1.000000E-03	    1.000000E-03	    1.000000E+03	    0.000000E+00	    0.000000E+00	    0.000000E+00	    0.000000E+00	
   -1.139156E-02	    5.384855E-05	    0.000000E+00	    0.000000E+00	    1.000000E-03	    1.000000E-03	    1.000000E+03	    0.000000E+00	    0.000000E+00	    0.000000E+00	    0.000000E+00	
   -1.139591E-02	    6.786567E-05	    1.173937E-03	   -1.000000E+00	    1.622430E-03	    1.600000E-03	    8.010000E+02	    1.246107E-04	    2.228143E-03	    1.432254E+04	    8.321802E+04	