Title="Mesh"
Variables="X","Y"
Zone I=82 J=82 F=POINT
   -2.799966E-02	    1.388093E-04	
   -2.799954E-02	    1.603906E-04	
   -2.799918E-02	    2.140112E-04	
   -2.799855E-02	    2.850422E-04	
   -2.799744E-02	    3.785196E-04	
   -2.799552E-02	    5.005935E-04	
   -2.799225E-02	    6.586239E-04	
   -2.798675E-02	    8.612232E-04	
   -2.797766E-02	    1.118219E-03	
   -2.796292E-02	    1.440511E-03	
   -2.793949E-02	    1.839798E-03	
   -2.790304E-02	    2.328153E-03	
   -2.784760E-02	    2.917430E-03	
   -2.776520E-02	    3.618504E-03	
   -2.764567E-02	    4.440355E-03	
   -2.747650E-02	    5.389036E-03	
   -2.724304E-02	    6.466586E-03	
   -2.692900E-02	    7.670007E-03	
   -2.651739E-02	    8.990434E-03	
   -2.599185E-02	    1.041268E-02	
   -2.533823E-02	    1.191529E-02	
   -2.454635E-02	    1.347133E-02	
   -2.361155E-02	    1.504975E-02	
   -2.253579E-02	    1.661740E-02	
   -2.132810E-02	    1.814145E-02	
   -2.000413E-02	    1.959170E-02	
   -1.858506E-02	    2.094267E-02	
   -1.709581E-02	    2.217506E-02	
   -1.556307E-02	    2.327640E-02	
   -1.401332E-02	    2.424101E-02	
   -1.247122E-02	    2.506928E-02	
   -1.095833E-02	    2.576655E-02	
   -9.492456E-03	    2.634185E-02	
   -8.087415E-03	    2.680660E-02	
   -6.753129E-03	    2.717343E-02	
   -5.496009E-03	    2.745531E-02	
   -4.319460E-03	    2.766482E-02	
   -3.224440E-03	    2.781372E-02	
   -2.209999E-03	    2.791265E-02	
   -1.273777E-03	    2.797101E-02	
   -4.124225E-04	    2.799696E-02	
    4.124225E-04	    2.799696E-02	
    1.273777E-03	    2.797101E-02	
    2.209999E-03	    2.791265E-02	
    3.224440E-03	    2.781372E-02	
    4.319460E-03	    2.766482E-02	
    5.496009E-03	    2.745531E-02	
    6.753129E-03	    2.717343E-02	
    8.087415E-03	    2.680660E-02	
    9.492456E-03	    2.634185E-02	
    1.095833E-02	    2.576655E-02	
    1.247122E-02	    2.506928E-02	
    1.401332E-02	    2.424101E-02	
    1.556307E-02	    2.327640E-02	
    1.709581E-02	    2.217506E-02	
    1.858506E-02	    2.094267E-02	
    2.000413E-02	    1.959170E-02	
    2.132810E-02	    1.814145E-02	
    2.253579E-02	    1.661740E-02	
    2.361155E-02	    1.504975E-02	
    2.454635E-02	    1.347133E-02	
    2.533823E-02	    1.191529E-02	
    2.599185E-02	    1.041268E-02	
    2.651739E-02	    8.990434E-03	
    2.692900E-02	    7.670007E-03	
    2.724304E-02	    6.466586E-03	
    2.747650E-02	    5.389036E-03	
    2.764567E-02	    4.440355E-03	
    2.776520E-02	    3.618504E-03	
    2.784760E-02	    2.917430E-03	
    2.790304E-02	    2.328153E-03	
    2.793949E-02	    1.839798E-03	
    2.796292E-02	    1.440511E-03	
    2.797766E-02	    1.118219E-03	
    2.798675E-02	    8.612232E-04	
    2.799225E-02	    6.586239E-04	
    2.799552E-02	    5.005935E-04	
    2.799744E-02	    3.785196E-04	
    2.799855E-02	    2.850422E-04	
    2.799918E-02	    2.140112E-04	
    2.799954E-02	    1.603906E-04	
    2.799966E-02	    1.388093E-04	
   -2.799910E-02	    1.388054E-04	
   -2.799889E-02	    1.603856E-04	
   -2.799832E-02	    2.140028E-04	
   -2.799740E-02	    2.850282E-04	
   -2.799592E-02	    3.784959E-04	
   -2.799351E-02	    5.005533E-04	
   -2.798960E-02	    6.585561E-04	
   -2.798328E-02	    8.611095E-04	
   -2.797316E-02	    1.118030E-03	
   -2.795712E-02	    1.440200E-03	
   -2.793209E-02	    1.839296E-03	
   -2.789369E-02	    2.327354E-03	
   -2.783591E-02	    2.916181E-03	
   -2.775075E-02	    3.616590E-03	
   -2.762801E-02	    4.437483E-03	
   -2.745520E-02	    5.384815E-03	
   -2.721770E-02	    6.460519E-03	
   -2.689930E-02	    7.661485E-03	
   -2.648312E-02	    8.978740E-03	
   -2.595295E-02	    1.039701E-02	
   -2.529484E-02	    1.189479E-02	
   -2.449884E-02	    1.344515E-02	
   -2.356050E-02	    1.501709E-02	
   -2.248201E-02	    1.657761E-02	
   -2.127254E-02	    1.809405E-02	
   -1.994787E-02	    1.953644E-02	
   -1.852920E-02	    2.087955E-02	
   -1.704141E-02	    2.210432E-02	
   -1.551109E-02	    2.319848E-02	
   -1.396459E-02	    2.415652E-02	
   -1.242637E-02	    2.497893E-02	
   -1.091783E-02	    2.567112E-02	
   -9.456595E-03	    2.624213E-02	
   -8.056326E-03	    2.670333E-02	
   -6.726815E-03	    2.706733E-02	
   -5.474372E-03	    2.734700E-02	
   -4.302326E-03	    2.755486E-02	
   -3.211581E-03	    2.770257E-02	
   -2.201154E-03	    2.780071E-02	
   -1.268669E-03	    2.785861E-02	
   -4.107670E-04	    2.788435E-02	
    4.107670E-04	    2.788435E-02	
    1.268669E-03	    2.785861E-02	
    2.201154E-03	    2.780071E-02	
    3.211581E-03	    2.770257E-02	
    4.302326E-03	    2.755486E-02	
    5.474372E-03	    2.734700E-02	
    6.726815E-03	    2.706733E-02	
    8.056326E-03	    2.670333E-02	
    9.456595E-03	    2.624213E-02	
    1.091783E-02	    2.567112E-02	
    1.242637E-02	    2.497893E-02	
    1.396459E-02	    2.415652E-02	
    1.551109E-02	    2.319848E-02	
    1.704141E-02	    2.210432E-02	
    1.852920E-02	    2.087955E-02	
    1.994787E-02	    1.953644E-02	
    2.127254E-02	    1.809405E-02	
    2.248201E-02	    1.657761E-02	
    2.356050E-02	    1.501709E-02	
    2.449884E-02	    1.344515E-02	
    2.529484E-02	    1.189479E-02	
    2.595295E-02	    1.039701E-02	
    2.648312E-02	    8.978740E-03	
    2.689930E-02	    7.661485E-03	
    2.721770E-02	    6.460519E-03	
    2.745520E-02	    5.384815E-03	
    2.762801E-02	    4.437483E-03	
    2.775075E-02	    3.616590E-03	
    2.783591E-02	    2.916181E-03	
    2.789369E-02	    2.327354E-03	
    2.793209E-02	    1.839296E-03	
    2.795712E-02	    1.440200E-03	
    2.797316E-02	    1.118030E-03	
    2.798328E-02	    8.611095E-04	
    2.798960E-02	    6.585561E-04	
    2.799351E-02	    5.005533E-04	
    2.799592E-02	    3.784959E-04	
    2.799740E-02	    2.850282E-04	
    2.799832E-02	    2.140028E-04	
    2.799889E-02	    1.603856E-04	
    2.799910E-02	    1.388054E-04	
   -2.799787E-02	    1.387890E-04	
   -2.799748E-02	    1.603655E-04	
   -2.799643E-02	    2.139725E-04	
   -2.799489E-02	    2.849814E-04	
   -2.799258E-02	    3.784227E-04	
   -2.798909E-02	    5.004372E-04	
   -2.798379E-02	    6.583705E-04	
   -2.797570E-02	    8.608119E-04	
   -2.796331E-02	    1.117553E-03	
   -2.794445E-02	    1.439440E-03	
   -2.791592E-02	    1.838094E-03	
   -2.787326E-02	    2.325476E-03	
   -2.781036E-02	    2.913288E-03	
   -2.771917E-02	    3.612207E-03	
   -2.758945E-02	    4.430960E-03	
   -2.740872E-02	    5.375298E-03	
   -2.716243E-02	    6.446921E-03	
   -2.683455E-02	    7.642474E-03	
   -2.640844E-02	    8.952754E-03	
   -2.586824E-02	    1.036230E-02	
   -2.520043E-02	    1.184952E-02	
   -2.439553E-02	    1.338746E-02	
   -2.344959E-02	    1.494529E-02	
   -2.236524E-02	    1.649028E-02	
   -2.115200E-02	    1.799018E-02	
   -1.982588E-02	    1.941552E-02	
   -1.840814E-02	    2.074160E-02	
   -1.692359E-02	    2.194986E-02	
   -1.539858E-02	    2.302850E-02	
   -1.385915E-02	    2.397234E-02	
   -1.232938E-02	    2.478210E-02	
   -1.083026E-02	    2.546333E-02	
   -9.379077E-03	    2.602508E-02	
   -7.989135E-03	    2.647865E-02	
   -6.669954E-03	    2.683653E-02	
   -5.427624E-03	    2.711145E-02	
   -4.265310E-03	    2.731575E-02	
   -3.183802E-03	    2.746092E-02	
   -2.182048E-03	    2.755735E-02	
   -1.257634E-03	    2.761424E-02	
   -4.071909E-04	    2.763954E-02	
    4.071909E-04	    2.763954E-02	
    1.257634E-03	    2.761424E-02	
    2.182048E-03	    2.755735E-02	
    3.183802E-03	    2.746092E-02	
    4.265310E-03	    2.731575E-02	
    5.427624E-03	    2.711145E-02	
    6.669954E-03	    2.683653E-02	
    7.989135E-03	    2.647865E-02	
    9.379077E-03	    2.602508E-02	
    1.083026E-02	    2.546333E-02	
    1.232938E-02	    2.478210E-02	
    1.385915E-02	    2.397234E-02	
    1.539858E-02	    2.302850E-02	
    1.692359E-02	    2.194986E-02	
    1.840814E-02	    2.074160E-02	
    1.982588E-02	    1.941552E-02	
    2.115200E-02	    1.799018E-02	
    2.236524E-02	    1.649028E-02	
    2.344959E-02	    1.494529E-02	
    2.439553E-02	    1.338746E-02	
    2.520043E-02	    1.184952E-02	
    2.586824E-02	    1.036230E-02	
    2.640844E-02	    8.952754E-03	
    2.683455E-02	    7.642474E-03	
    2.716243E-02	    6.446921E-03	
    2.740872E-02	    5.375298E-03	
    2.758945E-02	    4.430960E-03	
    2.771917E-02	    3.612207E-03	
    2.781036E-02	    2.913288E-03	
    2.787326E-02	    2.325476E-03	
    2.791592E-02	    1.838094E-03	
    2.794445E-02	    1.439440E-03	
    2.796331E-02	    1.117553E-03	
    2.797570E-02	    8.608119E-04	
    2.798379E-02	    6.583705E-04	
    2.798909E-02	    5.004372E-04	
    2.799258E-02	    3.784227E-04	
    2.799489E-02	    2.849814E-04	
    2.799643E-02	    2.139725E-04	
    2.799748E-02	    1.603655E-04	
    2.799787E-02	    1.387890E-04	
   -2.799642E-02	    1.387555E-04	
   -2.799580E-02	    1.603256E-04	
   -2.799419E-02	    2.139149E-04	
   -2.799191E-02	    2.848972E-04	
   -2.798862E-02	    3.782976E-04	
   -2.798386E-02	    5.002489E-04	
   -2.797691E-02	    6.580840E-04	
   -2.796670E-02	    8.603723E-04	
   -2.795164E-02	    1.116875E-03	
   -2.792942E-02	    1.438394E-03	
   -2.789676E-02	    1.836485E-03	
   -2.784906E-02	    2.323017E-03	
   -2.778012E-02	    2.909570E-03	
   -2.768181E-02	    3.606655E-03	
   -2.754385E-02	    4.422798E-03	
   -2.735378E-02	    5.363507E-03	
   -2.709716E-02	    6.430210E-03	
   -2.675813E-02	    7.619268E-03	
   -2.632038E-02	    8.921215E-03	
   -2.576846E-02	    1.032038E-02	
   -2.508934E-02	    1.179505E-02	
   -2.427410E-02	    1.331830E-02	
   -2.331936E-02	    1.485947E-02	
   -2.222827E-02	    1.638619E-02	
   -2.101076E-02	    1.786667E-02	
   -1.968308E-02	    1.927203E-02	
   -1.826657E-02	    2.057818E-02	
   -1.678591E-02	    2.176717E-02	
   -1.526721E-02	    2.282771E-02	
   -1.373610E-02	    2.375501E-02	
   -1.221625E-02	    2.455007E-02	
   -1.072819E-02	    2.521856E-02	
   -9.288745E-03	    2.576955E-02	
   -7.910862E-03	    2.621427E-02	
   -6.603731E-03	    2.656506E-02	
   -5.373189E-03	    2.683447E-02	
   -4.222213E-03	    2.703463E-02	
   -3.151463E-03	    2.717685E-02	
   -2.159808E-03	    2.727131E-02	
   -1.244789E-03	    2.732704E-02	
   -4.030284E-04	    2.735181E-02	
    4.030284E-04	    2.735181E-02	
    1.244789E-03	    2.732704E-02	
    2.159808E-03	    2.727131E-02	
    3.151463E-03	    2.717685E-02	
    4.222213E-03	    2.703463E-02	
    5.373189E-03	    2.683447E-02	
    6.603731E-03	    2.656506E-02	
    7.910862E-03	    2.621427E-02	
    9.288745E-03	    2.576955E-02	
    1.072819E-02	    2.521856E-02	
    1.221625E-02	    2.455007E-02	
    1.373610E-02	    2.375501E-02	
    1.526721E-02	    2.282771E-02	
    1.678591E-02	    2.176717E-02	
    1.826657E-02	    2.057818E-02	
    1.968308E-02	    1.927203E-02	
    2.101076E-02	    1.786667E-02	
    2.222827E-02	    1.638619E-02	
    2.331936E-02	    1.485947E-02	
    2.427410E-02	    1.331830E-02	
    2.508934E-02	    1.179505E-02	
    2.576846E-02	    1.032038E-02	
    2.632038E-02	    8.921215E-03	
    2.675813E-02	    7.619268E-03	
    2.709716E-02	    6.430210E-03	
    2.735378E-02	    5.363507E-03	
    2.754385E-02	    4.422798E-03	
    2.768181E-02	    3.606655E-03	
    2.778012E-02	    2.909570E-03	
    2.784906E-02	    2.323017E-03	
    2.789676E-02	    1.836485E-03	
    2.792942E-02	    1.438394E-03	
    2.795164E-02	    1.116875E-03	
    2.796670E-02	    8.603723E-04	
    2.797691E-02	    6.580840E-04	
    2.798386E-02	    5.002489E-04	
    2.798862E-02	    3.782976E-04	
    2.799191E-02	    2.848972E-04	
    2.799419E-02	    2.139149E-04	
    2.799580E-02	    1.603256E-04	
    2.799642E-02	    1.387555E-04	
   -2.799470E-02	    1.386963E-04	
   -2.799382E-02	    1.602556E-04	
   -2.799155E-02	    2.138165E-04	
   -2.798838E-02	    2.847571E-04	
   -2.798394E-02	    3.780960E-04	
   -2.797767E-02	    4.999555E-04	
   -2.796877E-02	    6.576521E-04	
   -2.795606E-02	    8.597306E-04	
   -2.793784E-02	    1.115916E-03	
   -2.791167E-02	    1.436954E-03	
   -2.787412E-02	    1.834324E-03	
   -2.782048E-02	    2.319785E-03	
   -2.774442E-02	    2.904768E-03	
   -2.763772E-02	    3.599595E-03	
   -2.749007E-02	    4.412550E-03	
   -2.728904E-02	    5.348858E-03	
   -2.702031E-02	    6.409630E-03	
   -2.666826E-02	    7.590902E-03	
   -2.621694E-02	    8.882904E-03	
   -2.565137E-02	    1.026973E-02	
   -2.495913E-02	    1.172954E-02	
   -2.413195E-02	    1.323547E-02	
   -2.316710E-02	    1.475705E-02	
   -2.206833E-02	    1.626234E-02	
   -2.084602E-02	    1.772011E-02	
   -1.951672E-02	    1.910216E-02	
   -1.810181E-02	    2.038512E-02	
   -1.662584E-02	    2.155173E-02	
   -1.511460E-02	    2.259127E-02	
   -1.359328E-02	    2.349942E-02	
   -1.208502E-02	    2.427748E-02	
   -1.060984E-02	    2.493126E-02	
   -9.184067E-03	    2.546983E-02	
   -7.820191E-03	    2.590434E-02	
   -6.527041E-03	    2.624696E-02	
   -5.310164E-03	    2.651002E-02	
   -4.172323E-03	    2.670542E-02	
   -3.114032E-03	    2.684424E-02	
   -2.134067E-03	    2.693644E-02	
   -1.229924E-03	    2.699082E-02	
   -3.982110E-04	    2.701500E-02	
    3.982110E-04	    2.701500E-02	
    1.229924E-03	    2.699082E-02	
    2.134067E-03	    2.693644E-02	
    3.114032E-03	    2.684424E-02	
    4.172323E-03	    2.670542E-02	
    5.310164E-03	    2.651002E-02	
    6.527041E-03	    2.624696E-02	
    7.820191E-03	    2.590434E-02	
    9.184067E-03	    2.546983E-02	
    1.060984E-02	    2.493126E-02	
    1.208502E-02	    2.427748E-02	
    1.359328E-02	    2.349942E-02	
    1.511460E-02	    2.259127E-02	
    1.662584E-02	    2.155173E-02	
    1.810181E-02	    2.038512E-02	
    1.951672E-02	    1.910216E-02	
    2.084602E-02	    1.772011E-02	
    2.206833E-02	    1.626234E-02	
    2.316710E-02	    1.475705E-02	
    2.413195E-02	    1.323547E-02	
    2.495913E-02	    1.172954E-02	
    2.565137E-02	    1.026973E-02	
    2.621694E-02	    8.882904E-03	
    2.666826E-02	    7.590902E-03	
    2.702031E-02	    6.409630E-03	
    2.728904E-02	    5.348858E-03	
    2.749007E-02	    4.412550E-03	
    2.763772E-02	    3.599595E-03	
    2.774442E-02	    2.904768E-03	
    2.782048E-02	    2.319785E-03	
    2.787412E-02	    1.834324E-03	
    2.791167E-02	    1.436954E-03	
    2.793784E-02	    1.115916E-03	
    2.795606E-02	    8.597306E-04	
    2.796877E-02	    6.576521E-04	
    2.797767E-02	    4.999555E-04	
    2.798394E-02	    3.780960E-04	
    2.798838E-02	    2.847571E-04	
    2.799155E-02	    2.138165E-04	
    2.799382E-02	    1.602556E-04	
    2.799470E-02	    1.386963E-04	
   -2.799268E-02	    1.385990E-04	
   -2.799148E-02	    1.601414E-04	
   -2.798842E-02	    2.136581E-04	
   -2.798422E-02	    2.845357E-04	
   -2.797842E-02	    3.777836E-04	
   -2.797037E-02	    4.995106E-04	
   -2.795917E-02	    6.570128E-04	
   -2.794352E-02	    8.588043E-04	
   -2.792157E-02	    1.114564E-03	
   -2.789075E-02	    1.434974E-03	
   -2.784745E-02	    1.831416E-03	
   -2.778683E-02	    2.315521E-03	
   -2.770241E-02	    2.898545E-03	
   -2.758588E-02	    3.590583E-03	
   -2.742689E-02	    4.399639E-03	
   -2.721305E-02	    5.330608E-03	
   -2.693020E-02	    6.384236E-03	
   -2.656300E-02	    7.556183E-03	
   -2.609592E-02	    8.836339E-03	
   -2.551458E-02	    1.020854E-02	
   -2.480723E-02	    1.165082E-02	
   -2.396635E-02	    1.313637E-02	
   -2.298999E-02	    1.463502E-02	
   -2.188255E-02	    1.611529E-02	
   -2.065495E-02	    1.754664E-02	
   -1.932402E-02	    1.890165E-02	
   -1.791120E-02	    2.015778E-02	
   -1.644087E-02	    2.129854E-02	
   -1.493842E-02	    2.231389E-02	
   -1.342854E-02	    2.320003E-02	
   -1.193378E-02	    2.395856E-02	
   -1.047353E-02	    2.459546E-02	
   -9.063554E-03	    2.511980E-02	
   -7.715847E-03	    2.554262E-02	
   -6.438816E-03	    2.587589E-02	
   -5.237677E-03	    2.613169E-02	
   -4.114955E-03	    2.632166E-02	
   -3.070995E-03	    2.645659E-02	
   -2.104474E-03	    2.654620E-02	
   -1.212834E-03	    2.659905E-02	
   -3.926731E-04	    2.662255E-02	
    3.926731E-04	    2.662255E-02	
    1.212834E-03	    2.659905E-02	
    2.104474E-03	    2.654620E-02	
    3.070995E-03	    2.645659E-02	
    4.114955E-03	    2.632166E-02	
    5.237677E-03	    2.613169E-02	
    6.438816E-03	    2.587589E-02	
    7.715847E-03	    2.554262E-02	
    9.063554E-03	    2.511980E-02	
    1.047353E-02	    2.459546E-02	
    1.193378E-02	    2.395856E-02	
    1.342854E-02	    2.320003E-02	
    1.493842E-02	    2.231389E-02	
    1.644087E-02	    2.129854E-02	
    1.791120E-02	    2.015778E-02	
    1.932402E-02	    1.890165E-02	
    2.065495E-02	    1.754664E-02	
    2.188255E-02	    1.611529E-02	
    2.298999E-02	    1.463502E-02	
    2.396635E-02	    1.313637E-02	
    2.480723E-02	    1.165082E-02	
    2.551458E-02	    1.020854E-02	
    2.609592E-02	    8.836339E-03	
    2.656300E-02	    7.556183E-03	
    2.693020E-02	    6.384236E-03	
    2.721305E-02	    5.330608E-03	
    2.742689E-02	    4.399639E-03	
    2.758588E-02	    3.590583E-03	
    2.770241E-02	    2.898545E-03	
    2.778683E-02	    2.315521E-03	
    2.784745E-02	    1.831416E-03	
    2.789075E-02	    1.434974E-03	
    2.792157E-02	    1.114564E-03	
    2.794352E-02	    8.588043E-04	
    2.795917E-02	    6.570128E-04	
    2.797037E-02	    4.995106E-04	
    2.797842E-02	    3.777836E-04	
    2.798422E-02	    2.845357E-04	
    2.798842E-02	    2.136581E-04	
    2.799148E-02	    1.601414E-04	
    2.799268E-02	    1.385990E-04	
   -2.799029E-02	    1.384466E-04	
   -2.798872E-02	    1.599632E-04	
   -2.798475E-02	    2.134134E-04	
   -2.797933E-02	    2.841974E-04	
   -2.797193E-02	    3.773128E-04	
   -2.796179E-02	    4.988508E-04	
   -2.794790E-02	    6.560816E-04	
   -2.792879E-02	    8.574809E-04	
   -2.790247E-02	    1.112672E-03	
   -2.786619E-02	    1.432256E-03	
   -2.781617E-02	    1.827503E-03	
   -2.774737E-02	    2.309888E-03	
   -2.765318E-02	    2.890460E-03	
   -2.752519E-02	    3.579049E-03	
   -2.735299E-02	    4.383333E-03	
   -2.712426E-02	    5.307825E-03	
   -2.682502E-02	    6.352852E-03	
   -2.644030E-02	    7.513652E-03	
   -2.595507E-02	    8.779731E-03	
   -2.535562E-02	    1.013464E-02	
   -2.463099E-02	    1.155632E-02	
   -2.377455E-02	    1.301803E-02	
   -2.278520E-02	    1.448995E-02	
   -2.166810E-02	    1.594118E-02	
   -2.043475E-02	    1.734197E-02	
   -1.910228E-02	    1.866580E-02	
   -1.769218E-02	    1.989109E-02	
   -1.622860E-02	    2.100223E-02	
   -1.473648E-02	    2.198992E-02	
   -1.323991E-02	    2.285092E-02	
   -1.176073E-02	    2.358720E-02	
   -1.031768E-02	    2.420490E-02	
   -8.925858E-03	    2.471308E-02	
   -7.596683E-03	    2.512263E-02	
   -6.338097E-03	    2.544529E-02	
   -5.154950E-03	    2.569286E-02	
   -4.049495E-03	    2.587667E-02	
   -3.021897E-03	    2.600720E-02	
   -2.070715E-03	    2.609387E-02	
   -1.193341E-03	    2.614499E-02	
   -3.863563E-04	    2.616771E-02	
    3.863563E-04	    2.616771E-02	
    1.193341E-03	    2.614499E-02	
    2.070715E-03	    2.609387E-02	
    3.021897E-03	    2.600720E-02	
    4.049495E-03	    2.587667E-02	
    5.154950E-03	    2.569286E-02	
    6.338097E-03	    2.544529E-02	
    7.596683E-03	    2.512263E-02	
    8.925858E-03	    2.471308E-02	
    1.031768E-02	    2.420490E-02	
    1.176073E-02	    2.358720E-02	
    1.323991E-02	    2.285092E-02	
    1.473648E-02	    2.198992E-02	
    1.622860E-02	    2.100223E-02	
    1.769218E-02	    1.989109E-02	
    1.910228E-02	    1.866580E-02	
    2.043475E-02	    1.734197E-02	
    2.166810E-02	    1.594118E-02	
    2.278520E-02	    1.448995E-02	
    2.377455E-02	    1.301803E-02	
    2.463099E-02	    1.155632E-02	
    2.535562E-02	    1.013464E-02	
    2.595507E-02	    8.779731E-03	
    2.644030E-02	    7.513652E-03	
    2.682502E-02	    6.352852E-03	
    2.712426E-02	    5.307825E-03	
    2.735299E-02	    4.383333E-03	
    2.752519E-02	    3.579049E-03	
    2.765318E-02	    2.890460E-03	
    2.774737E-02	    2.309888E-03	
    2.781617E-02	    1.827503E-03	
    2.786619E-02	    1.432256E-03	
    2.790247E-02	    1.112672E-03	
    2.792879E-02	    8.574809E-04	
    2.794790E-02	    6.560816E-04	
    2.796179E-02	    4.988508E-04	
    2.797193E-02	    3.773128E-04	
    2.797933E-02	    2.841974E-04	
    2.798475E-02	    2.134134E-04	
    2.798872E-02	    1.599632E-04	
    2.799029E-02	    1.384466E-04	
   -2.798750E-02	    1.382159E-04	
   -2.798550E-02	    1.596942E-04	
   -2.798045E-02	    2.130463E-04	
   -2.797361E-02	    2.836941E-04	
   -2.796433E-02	    3.766194E-04	
   -2.795176E-02	    4.978905E-04	
   -2.793471E-02	    6.547445E-04	
   -2.791157E-02	    8.556094E-04	
   -2.788015E-02	    1.110040E-03	
   -2.783750E-02	    1.428540E-03	
   -2.777963E-02	    1.822243E-03	
   -2.770132E-02	    2.302441E-03	
   -2.759578E-02	    2.879941E-03	
   -2.745448E-02	    3.564261E-03	
   -2.726698E-02	    4.362703E-03	
   -2.702105E-02	    5.279343E-03	
   -2.670295E-02	    6.314032E-03	
   -2.629811E-02	    7.461535E-03	
   -2.579212E-02	    8.710939E-03	
   -2.517204E-02	    1.004550E-02	
   -2.442785E-02	    1.144305E-02	
   -2.355390E-02	    1.287700E-02	
   -2.255007E-02	    1.431795E-02	
   -2.142236E-02	    1.573569E-02	
   -2.018288E-02	    1.710138E-02	
   -1.884909E-02	    1.838954E-02	
   -1.744251E-02	    1.957966E-02	
   -1.598698E-02	    2.065712E-02	
   -1.450692E-02	    2.161344E-02	
   -1.302571E-02	    2.244601E-02	
   -1.156444E-02	    2.315718E-02	
   -1.014104E-02	    2.375323E-02	
   -8.769894E-03	    2.424322E-02	
   -7.461784E-03	    2.463785E-02	
   -6.224128E-03	    2.494859E-02	
   -5.061370E-03	    2.518692E-02	
   -3.975467E-03	    2.536382E-02	
   -2.966380E-03	    2.548941E-02	
   -2.032549E-03	    2.557279E-02	
   -1.171304E-03	    2.562196E-02	
   -3.792154E-04	    2.564382E-02	
    3.792154E-04	    2.564382E-02	
    1.171304E-03	    2.562196E-02	
    2.032549E-03	    2.557279E-02	
    2.966380E-03	    2.548941E-02	
    3.975467E-03	    2.536382E-02	
    5.061370E-03	    2.518692E-02	
    6.224128E-03	    2.494859E-02	
    7.461784E-03	    2.463785E-02	
    8.769894E-03	    2.424322E-02	
    1.014104E-02	    2.375323E-02	
    1.156444E-02	    2.315718E-02	
    1.302571E-02	    2.244601E-02	
    1.450692E-02	    2.161344E-02	
    1.598698E-02	    2.065712E-02	
    1.744251E-02	    1.957966E-02	
    1.884909E-02	    1.838954E-02	
    2.018288E-02	    1.710138E-02	
    2.142236E-02	    1.573569E-02	
    2.255007E-02	    1.431795E-02	
    2.355390E-02	    1.287700E-02	
    2.442785E-02	    1.144305E-02	
    2.517204E-02	    1.004550E-02	
    2.579212E-02	    8.710939E-03	
    2.629811E-02	    7.461535E-03	
    2.670295E-02	    6.314032E-03	
    2.702105E-02	    5.279343E-03	
    2.726698E-02	    4.362703E-03	
    2.745448E-02	    3.564261E-03	
    2.759578E-02	    2.879941E-03	
    2.770132E-02	    2.302441E-03	
    2.777963E-02	    1.822243E-03	
    2.783750E-02	    1.428540E-03	
    2.788015E-02	    1.110040E-03	
    2.791157E-02	    8.556094E-04	
    2.793471E-02	    6.547445E-04	
    2.795176E-02	    4.978905E-04	
    2.796433E-02	    3.766194E-04	
    2.797361E-02	    2.836941E-04	
    2.798045E-02	    2.130463E-04	
    2.798550E-02	    1.596942E-04	
    2.798750E-02	    1.382159E-04	
   -2.798426E-02	    1.378758E-04	
   -2.798175E-02	    1.592984E-04	
   -2.797545E-02	    2.125087E-04	
   -2.796695E-02	    2.829614E-04	
   -2.795550E-02	    3.756174E-04	
   -2.794008E-02	    4.965154E-04	
   -2.791936E-02	    6.528503E-04	
   -2.789154E-02	    8.529904E-04	
   -2.785420E-02	    1.106406E-03	
   -2.780416E-02	    1.423483E-03	
   -2.773721E-02	    1.815193E-03	
   -2.764789E-02	    2.292611E-03	
   -2.752924E-02	    2.866258E-03	
   -2.737259E-02	    3.545296E-03	
   -2.716750E-02	    4.336593E-03	
   -2.690184E-02	    5.243727E-03	
   -2.656218E-02	    6.266018E-03	
   -2.613443E-02	    7.397707E-03	
   -2.560491E-02	    8.627432E-03	
   -2.496157E-02	    9.938149E-03	
   -2.419546E-02	    1.130761E-02	
   -2.330205E-02	    1.270943E-02	
   -2.228229E-02	    1.411474E-02	
   -2.114311E-02	    1.549415E-02	
   -1.989727E-02	    1.681984E-02	
   -1.856258E-02	    1.806755E-02	
   -1.716049E-02	    1.921792E-02	
   -1.571451E-02	    2.025744E-02	
   -1.424843E-02	    2.117856E-02	
   -1.278485E-02	    2.197929E-02	
   -1.134395E-02	    2.266239E-02	
   -9.942812E-03	    2.323431E-02	
   -8.595000E-03	    2.370403E-02	
   -7.310604E-03	    2.408206E-02	
   -6.096465E-03	    2.437957E-02	
   -4.956586E-03	    2.460764E-02	
   -3.892598E-03	    2.477687E-02	
   -2.904246E-03	    2.489698E-02	
   -1.989838E-03	    2.497671E-02	
   -1.146644E-03	    2.502372E-02	
   -3.712252E-04	    2.504462E-02	
    3.712252E-04	    2.504462E-02	
    1.146644E-03	    2.502372E-02	
    1.989838E-03	    2.497671E-02	
    2.904246E-03	    2.489698E-02	
    3.892598E-03	    2.477687E-02	
    4.956586E-03	    2.460764E-02	
    6.096465E-03	    2.437957E-02	
    7.310604E-03	    2.408206E-02	
    8.595000E-03	    2.370403E-02	
    9.942812E-03	    2.323431E-02	
    1.134395E-02	    2.266239E-02	
    1.278485E-02	    2.197929E-02	
    1.424843E-02	    2.117856E-02	
    1.571451E-02	    2.025744E-02	
    1.716049E-02	    1.921792E-02	
    1.856258E-02	    1.806755E-02	
    1.989727E-02	    1.681984E-02	
    2.114311E-02	    1.549415E-02	
    2.228229E-02	    1.411474E-02	
    2.330205E-02	    1.270943E-02	
    2.419546E-02	    1.130761E-02	
    2.496157E-02	    9.938149E-03	
    2.560491E-02	    8.627432E-03	
    2.613443E-02	    7.397707E-03	
    2.656218E-02	    6.266018E-03	
    2.690184E-02	    5.243727E-03	
    2.716750E-02	    4.336593E-03	
    2.737259E-02	    3.545296E-03	
    2.752924E-02	    2.866258E-03	
    2.764789E-02	    2.292611E-03	
    2.773721E-02	    1.815193E-03	
    2.780416E-02	    1.423483E-03	
    2.785420E-02	    1.106406E-03	
    2.789154E-02	    8.529904E-04	
    2.791936E-02	    6.528503E-04	
    2.794008E-02	    4.965154E-04	
    2.795550E-02	    3.756174E-04	
    2.796695E-02	    2.829614E-04	
    2.797545E-02	    2.125087E-04	
    2.798175E-02	    1.592984E-04	
    2.798426E-02	    1.378758E-04	
   -2.798050E-02	    1.373855E-04	
   -2.797741E-02	    1.587286E-04	
   -2.796966E-02	    2.117376E-04	
   -2.795925E-02	    2.819154E-04	
   -2.794528E-02	    3.741951E-04	
   -2.792658E-02	    4.945770E-04	
   -2.790163E-02	    6.502027E-04	
   -2.786839E-02	    8.493657E-04	
   -2.782422E-02	    1.101433E-03	
   -2.776567E-02	    1.416647E-03	
   -2.768827E-02	    1.805789E-03	
   -2.758631E-02	    2.279676E-03	
   -2.745262E-02	    2.848499E-03	
   -2.727842E-02	    3.521008E-03	
   -2.705326E-02	    4.303579E-03	
   -2.676518E-02	    5.199234E-03	
   -2.640110E-02	    6.206704E-03	
   -2.594753E-02	    7.319663E-03	
   -2.539160E-02	    8.526279E-03	
   -2.472233E-02	    9.809214E-03	
   -2.393196E-02	    1.114619E-02	
   -2.301720E-02	    1.251111E-02	
   -2.198020E-02	    1.387573E-02	
   -2.082886E-02	    1.521162E-02	
   -1.957665E-02	    1.649217E-02	
   -1.824166E-02	    1.769442E-02	
   -1.684527E-02	    1.880034E-02	
   -1.541054E-02	    1.979760E-02	
   -1.396054E-02	    2.067962E-02	
   -1.251696E-02	    2.144511E-02	
   -1.109903E-02	    2.209722E-02	
   -9.722845E-03	    2.264253E-02	
   -8.401094E-03	    2.308996E-02	
   -7.143104E-03	    2.344977E-02	
   -5.955098E-03	    2.373274E-02	
   -4.840600E-03	    2.394957E-02	
   -3.800898E-03	    2.411039E-02	
   -2.835505E-03	    2.422451E-02	
   -1.942594E-03	    2.430024E-02	
   -1.119370E-03	    2.434489E-02	
   -3.623878E-04	    2.436474E-02	
    3.623878E-04	    2.436474E-02	
    1.119370E-03	    2.434489E-02	
    1.942594E-03	    2.430024E-02	
    2.835505E-03	    2.422451E-02	
    3.800898E-03	    2.411039E-02	
    4.840600E-03	    2.394957E-02	
    5.955098E-03	    2.373274E-02	
    7.143104E-03	    2.344977E-02	
    8.401094E-03	    2.308996E-02	
    9.722845E-03	    2.264253E-02	
    1.109903E-02	    2.209722E-02	
    1.251696E-02	    2.144511E-02	
    1.396054E-02	    2.067962E-02	
    1.541054E-02	    1.979760E-02	
    1.684527E-02	    1.880034E-02	
    1.824166E-02	    1.769442E-02	
    1.957665E-02	    1.649217E-02	
    2.082886E-02	    1.521162E-02	
    2.198020E-02	    1.387573E-02	
    2.301720E-02	    1.251111E-02	
    2.393196E-02	    1.114619E-02	
    2.472233E-02	    9.809214E-03	
    2.539160E-02	    8.526279E-03	
    2.594753E-02	    7.319663E-03	
    2.640110E-02	    6.206704E-03	
    2.676518E-02	    5.199234E-03	
    2.705326E-02	    4.303579E-03	
    2.727842E-02	    3.521008E-03	
    2.745262E-02	    2.848499E-03	
    2.758631E-02	    2.279676E-03	
    2.768827E-02	    1.805789E-03	
    2.776567E-02	    1.416647E-03	
    2.782422E-02	    1.101433E-03	
    2.786839E-02	    8.493657E-04	
    2.790163E-02	    6.502027E-04	
    2.792658E-02	    4.945770E-04	
    2.794528E-02	    3.741951E-04	
    2.795925E-02	    2.819154E-04	
    2.796966E-02	    2.117376E-04	
    2.797741E-02	    1.587286E-04	
    2.798050E-02	    1.373855E-04	
   -2.797619E-02	    1.366929E-04	
   -2.797243E-02	    1.579246E-04	
   -2.796302E-02	    2.106525E-04	
   -2.795040E-02	    2.804486E-04	
   -2.793354E-02	    3.722097E-04	
   -2.791109E-02	    4.918864E-04	
   -2.788128E-02	    6.465526E-04	
   -2.784184E-02	    8.444089E-04	
   -2.778986E-02	    1.094696E-03	
   -2.772159E-02	    1.407485E-03	
   -2.763226E-02	    1.793327E-03	
   -2.751590E-02	    2.262743E-03	
   -2.736512E-02	    2.825541E-03	
   -2.717103E-02	    3.490003E-03	
   -2.692320E-02	    4.261954E-03	
   -2.660988E-02	    5.143799E-03	
   -2.621843E-02	    6.133631E-03	
   -2.573606E-02	    7.224524E-03	
   -2.515088E-02	    8.404165E-03	
   -2.445307E-02	    9.654953E-03	
   -2.363622E-02	    1.095464E-02	
   -2.269842E-02	    1.227752E-02	
   -2.164308E-02	    1.359613E-02	
   -2.047917E-02	    1.488313E-02	
   -1.922081E-02	    1.611325E-02	
   -1.788639E-02	    1.726500E-02	
   -1.649711E-02	    1.832178E-02	
   -1.507551E-02	    1.927253E-02	
   -1.364382E-02	    2.011167E-02	
   -1.222273E-02	    2.083863E-02	
   -1.083038E-02	    2.145697E-02	
   -9.481843E-03	    2.197336E-02	
   -8.188844E-03	    2.239659E-02	
   -6.959896E-03	    2.273664E-02	
   -5.800565E-03	    2.300389E-02	