Title="Fields"
Variables="X""Y""Velocity""Phi""Effective Viscosity""Dynamic Viscosity""Density""Eddy Viscosity""K""Epsilon""S"
Zone I=82 J=82 F=POINT
   -1.097257E-02	    4.922966E-05	    0.000000E+00	   -1.000000E+00	    1.600000E-03	    1.600000E-03	    8.010000E+02	    0.000000E+00	    0.000000E+00	    0.000000E+00	    0.000000E+00	
   -1.096894E-02	    5.686501E-05	    0.000000E+00	   -1.000000E+00	    1.600000E-03	    1.600000E-03	    8.010000E+02	    0.000000E+00	    0.000000E+00	    0.000000E+00	    0.000000E+00	
   -1.095989E-02	    7.581408E-05	    0.000000E+00	   -1.000000E+00	    1.600000E-03	    1.600000E-03	    8.010000E+02	    0.000000E+00	    0.000000E+00	    0.000000E+00	    0.000000E+00	
   -1.094787E-02	    1.008686E-04	    0.000000E+00	   -1.000000E+00	    1.600000E-03	    1.600000E-03	    8.010000E+02	    0.000000E+00	    0.000000E+00	    0.000000E+00	    0.000000E+00	
   -1.093198E-02	    1.337585E-04	    0.000000E+00	   -1.000000E+00	    1.600000E-03	    1.600000E-03	    8.010000E+02	    0.000000E+00	    0.000000E+00	    0.000000E+00	    0.000000E+00	
   -1.091111E-02	    1.765704E-04	    0.000000E+00	   -1.000000E+00	    1.600000E-03	    1.600000E-03	    8.010000E+02	    0.000000E+00	    0.000000E+00	    0.000000E+00	    0.000000E+00	
   -1.088390E-02	    2.317590E-04	    0.000000E+00	   -1.000000E+00	    1.600000E-03	    1.600000E-03	    8.010000E+02	    0.000000E+00	    0.000000E+00	    0.000000E+00	    0.000000E+00	
   -1.084870E-02	    3.021297E-04	    0.000000E+00	   -1.000000E+00	    1.600000E-03	    1.600000E-03	    8.010000E+02	    0.000000E+00	    0.000000E+00	    0.000000E+00	    0.000000E+00	
   -1.080354E-02	    3.907814E-04	    0.000000E+00	   -1.000000E+00	    1.600000E-03	    1.600000E-03	    8.010000E+02	    0.000000E+00	    0.000000E+00	    0.000000E+00	    0.000000E+00	
   -1.074611E-02	    5.009999E-04	    0.000000E+00	   -1.000000E+00	    1.600000E-03	    1.600000E-03	    8.010000E+02	    0.000000E+00	    0.000000E+00	    0.000000E+00	    0.000000E+00	
   -1.067374E-02	    6.360932E-04	    0.000000E+00	   -1.000000E+00	    1.600000E-03	    1.600000E-03	    8.010000E+02	    0.000000E+00	    0.000000E+00	    0.000000E+00	    0.000000E+00	
   -1.058343E-02	    7.991693E-04	    0.000000E+00	   -1.000000E+00	    1.600000E-03	    1.600000E-03	    8.010000E+02	    0.000000E+00	    0.000000E+00	    0.000000E+00	    0.000000E+00	
   -1.047185E-02	    9.928613E-04	    0.000000E+00	   -1.000000E+00	    1.600000E-03	    1.600000E-03	    8.010000E+02	    0.000000E+00	    0.000000E+00	    0.000000E+00	    0.000000E+00	
   -1.033545E-02	    1.219018E-03	    0.000000E+00	   -1.000000E+00	    1.600000E-03	    1.600000E-03	    8.010000E+02	    0.000000E+00	    0.000000E+00	    0.000000E+00	    0.000000E+00	
   -1.017059E-02	    1.478390E-03	    0.000000E+00	   -1.000000E+00	    1.600000E-03	    1.600000E-03	    8.010000E+02	    0.000000E+00	    0.000000E+00	    0.000000E+00	    0.000000E+00	
   -9.973685E-03	    1.770344E-03	    0.000000E+00	   -1.000000E+00	    1.600000E-03	    1.600000E-03	    8.010000E+02	    0.000000E+00	    0.000000E+00	    0.000000E+00	    0.000000E+00	
   -9.741532E-03	    2.092663E-03	    0.000000E+00	   -1.000000E+00	    1.600000E-03	    1.600000E-03	    8.010000E+02	    0.000000E+00	    0.000000E+00	    0.000000E+00	    0.000000E+00	
   -9.471559E-03	    2.441459E-03	    0.000000E+00	   -1.000000E+00	    1.600000E-03	    1.600000E-03	    8.010000E+02	    0.000000E+00	    0.000000E+00	    0.000000E+00	    0.000000E+00	
   -9.162169E-03	    2.811258E-03	    0.000000E+00	   -1.000000E+00	    1.600000E-03	    1.600000E-03	    8.010000E+02	    0.000000E+00	    0.000000E+00	    0.000000E+00	    0.000000E+00	
   -8.813041E-03	    3.195240E-03	    0.000000E+00	   -1.000000E+00	    1.600000E-03	    1.600000E-03	    8.010000E+02	    0.000000E+00	    0.000000E+00	    0.000000E+00	    0.000000E+00	
   -8.425350E-03	    3.585659E-03	    0.000000E+00	   -1.000000E+00	    1.600000E-03	    1.600000E-03	    8.010000E+02	    0.000000E+00	    0.000000E+00	    0.000000E+00	    0.000000E+00	
   -8.001866E-03	    3.974362E-03	    0.000000E+00	   -1.000000E+00	    1.600000E-03	    1.600000E-03	    8.010000E+02	    0.000000E+00	    0.000000E+00	    0.000000E+00	    0.000000E+00	
   -7.546900E-03	    4.353373E-03	    0.000000E+00	   -1.000000E+00	    1.600000E-03	    1.600000E-03	    8.010000E+02	    0.000000E+00	    0.000000E+00	    0.000000E+00	    0.000000E+00	
   -7.066085E-03	    4.715435E-03	    0.000000E+00	   -1.000000E+00	    1.600000E-03	    1.600000E-03	    8.010000E+02	    0.000000E+00	    0.000000E+00	    0.000000E+00	    0.000000E+00	
   -6.566027E-03	    5.054464E-03	    0.000000E+00	   -1.000000E+00	    1.600000E-03	    1.600000E-03	    8.010000E+02	    0.000000E+00	    0.000000E+00	    0.000000E+00	    0.000000E+00	
   -6.053868E-03	    5.365842E-03	    0.000000E+00	   -1.000000E+00	    1.600000E-03	    1.600000E-03	    8.010000E+02	    0.000000E+00	    0.000000E+00	    0.000000E+00	    0.000000E+00	
   -5.536837E-03	    5.646540E-03	    0.000000E+00	   -1.000000E+00	    1.600000E-03	    1.600000E-03	    8.010000E+02	    0.000000E+00	    0.000000E+00	    0.000000E+00	    0.000000E+00	
   -5.021831E-03	    5.895082E-03	    0.000000E+00	   -1.000000E+00	    1.600000E-03	    1.600000E-03	    8.010000E+02	    0.000000E+00	    0.000000E+00	    0.000000E+00	    0.000000E+00	
   -4.515084E-03	    6.111377E-03	    0.000000E+00	   -1.000000E+00	    1.600000E-03	    1.600000E-03	    8.010000E+02	    0.000000E+00	    0.000000E+00	    0.000000E+00	    0.000000E+00	
   -4.021937E-03	    6.296474E-03	    0.000000E+00	   -1.000000E+00	    1.600000E-03	    1.600000E-03	    8.010000E+02	    0.000000E+00	    0.000000E+00	    0.000000E+00	    0.000000E+00	
   -3.546723E-03	    6.452272E-03	    0.000000E+00	   -1.000000E+00	    1.600000E-03	    1.600000E-03	    8.010000E+02	    0.000000E+00	    0.000000E+00	    0.000000E+00	    0.000000E+00	
   -3.092741E-03	    6.581246E-03	    0.000000E+00	   -1.000000E+00	    1.600000E-03	    1.600000E-03	    8.010000E+02	    0.000000E+00	    0.000000E+00	    0.000000E+00	    0.000000E+00	
   -2.662309E-03	    6.686190E-03	    0.000000E+00	   -1.000000E+00	    1.600000E-03	    1.600000E-03	    8.010000E+02	    0.000000E+00	    0.000000E+00	    0.000000E+00	    0.000000E+00	
   -2.256863E-03	    6.770015E-03	    0.000000E+00	   -1.000000E+00	    1.600000E-03	    1.600000E-03	    8.010000E+02	    0.000000E+00	    0.000000E+00	    0.000000E+00	    0.000000E+00	
   -1.877085E-03	    6.835587E-03	    0.000000E+00	   -1.000000E+00	    1.600000E-03	    1.600000E-03	    8.010000E+02	    0.000000E+00	    0.000000E+00	    0.000000E+00	    0.000000E+00	
   -1.523042E-03	    6.885624E-03	    0.000000E+00	   -1.000000E+00	    1.600000E-03	    1.600000E-03	    8.010000E+02	    0.000000E+00	    0.000000E+00	    0.000000E+00	    0.000000E+00	
   -1.194317E-03	    6.922619E-03	    0.000000E+00	   -1.000000E+00	    1.600000E-03	    1.600000E-03	    8.010000E+02	    0.000000E+00	    0.000000E+00	    0.000000E+00	    0.000000E+00	
   -8.901294E-04	    6.948811E-03	    0.000000E+00	   -1.000000E+00	    1.600000E-03	    1.600000E-03	    8.010000E+02	    0.000000E+00	    0.000000E+00	    0.000000E+00	    0.000000E+00	
   -6.094420E-04	    6.966166E-03	    0.000000E+00	   -1.000000E+00	    1.600000E-03	    1.600000E-03	    8.010000E+02	    0.000000E+00	    0.000000E+00	    0.000000E+00	    0.000000E+00	
   -3.510455E-04	    6.976388E-03	    0.000000E+00	   -1.000000E+00	    1.600000E-03	    1.600000E-03	    8.010000E+02	    0.000000E+00	    0.000000E+00	    0.000000E+00	    0.000000E+00	
   -1.136298E-04	    6.980929E-03	    0.000000E+00	   -1.000000E+00	    1.600000E-03	    1.600000E-03	    8.010000E+02	    0.000000E+00	    0.000000E+00	    0.000000E+00	    0.000000E+00	
    1.136298E-04	    6.980929E-03	    0.000000E+00	   -1.000000E+00	    1.600000E-03	    1.600000E-03	    8.010000E+02	    0.000000E+00	    0.000000E+00	    0.000000E+00	    0.000000E+00	
    3.510455E-04	    6.976388E-03	    0.000000E+00	   -1.000000E+00	    1.600000E-03	    1.600000E-03	    8.010000E+02	    0.000000E+00	    0.000000E+00	    0.000000E+00	    0.000000E+00	
    6.094420E-04	    6.966166E-03	    0.000000E+00	   -1.000000E+00	    1.600000E-03	    1.600000E-03	    8.010000E+02	    0.000000E+00	    0.000000E+00	    0.000000E+00	    0.000000E+00	
    8.901294E-04	    6.948811E-03	    0.000000E+00	   -1.000000E+00	    1.600000E-03	    1.600000E-03	    8.010000E+02	    0.000000E+00	    0.000000E+00	    0.000000E+00	    0.000000E+00	
    1.194317E-03	    6.922619E-03	    0.000000E+00	   -1.000000E+00	    1.600000E-03	    1.600000E-03	    8.010000E+02	    0.000000E+00	    0.000000E+00	    0.000000E+00	    0.000000E+00	
    1.523042E-03	    6.885624E-03	    0.000000E+00	   -1.000000E+00	    1.600000E-03	    1.600000E-03	    8.010000E+02	    0.000000E+00	    0.000000E+00	    0.000000E+00	    0.000000E+00	
    1.877085E-03	    6.835587E-03	    0.000000E+00	   -1.000000E+00	    1.600000E-03	    1.600000E-03	    8.010000E+02	    0.000000E+00	    0.000000E+00	    0.000000E+00	    0.000000E+00	
    2.256863E-03	    6.770015E-03	    0.000000E+00	   -1.000000E+00	    1.600000E-03	    1.600000E-03	    8.010000E+02	    0.000000E+00	    0.000000E+00	    0.000000E+00	    0.000000E+00	
    2.662309E-03	    6.686190E-03	    0.000000E+00	   -1.000000E+00	    1.600000E-03	    1.600000E-03	    8.010000E+02	    0.000000E+00	    0.000000E+00	    0.000000E+00	    0.000000E+00	
    3.092741E-03	    6.581246E-03	    0.000000E+00	   -1.000000E+00	    1.600000E-03	    1.600000E-03	    8.010000E+02	    0.000000E+00	    0.000000E+00	    0.000000E+00	    0.000000E+00	
    3.546723E-03	    6.452272E-03	    0.000000E+00	   -1.000000E+00	    1.600000E-03	    1.600000E-03	    8.010000E+02	    0.000000E+00	    0.000000E+00	    0.000000E+00	    0.000000E+00	
    4.021937E-03	    6.296474E-03	    0.000000E+00	   -1.000000E+00	    1.600000E-03	    1.600000E-03	    8.010000E+02	    0.000000E+00	    0.000000E+00	    0.000000E+00	    0.000000E+00	
    4.515084E-03	    6.111377E-03	    0.000000E+00	   -1.000000E+00	    1.600000E-03	    1.600000E-03	    8.010000E+02	    0.000000E+00	    0.000000E+00	    0.000000E+00	    0.000000E+00	
    5.021831E-03	    5.895082E-03	    0.000000E+00	   -1.000000E+00	    1.600000E-03	    1.600000E-03	    8.010000E+02	    0.000000E+00	    0.000000E+00	    0.000000E+00	    0.000000E+00	
    5.536837E-03	    5.646540E-03	    0.000000E+00	   -1.000000E+00	    1.600000E-03	    1.600000E-03	    8.010000E+02	    0.000000E+00	    0.000000E+00	    0.000000E+00	    0.000000E+00	
    6.053868E-03	    5.365842E-03	    0.000000E+00	   -1.000000E+00	    1.600000E-03	    1.600000E-03	    8.010000E+02	    0.000000E+00	    0.000000E+00	    0.000000E+00	    0.000000E+00	
    6.566027E-03	    5.054464E-03	    0.000000E+00	   -1.000000E+00	    1.600000E-03	    1.600000E-03	    8.010000E+02	    0.000000E+00	    0.000000E+00	    0.000000E+00	    0.000000E+00	
    7.066085E-03	    4.715435E-03	    0.000000E+00	   -1.000000E+00	    1.600000E-03	    1.600000E-03	    8.010000E+02	    0.000000E+00	    0.000000E+00	    0.000000E+00	    0.000000E+00	
    7.546900E-03	    4.353373E-03	    0.000000E+00	   -1.000000E+00	    1.600000E-03	    1.600000E-03	    8.010000E+02	    0.000000E+00	    0.000000E+00	    0.000000E+00	    0.000000E+00	
    8.001866E-03	    3.974362E-03	    0.000000E+00	   -1.000000E+00	    1.600000E-03	    1.600000E-03	    8.010000E+02	    0.000000E+00	    0.000000E+00	    0.000000E+00	    0.000000E+00	
    8.425350E-03	    3.585659E-03	    0.000000E+00	   -1.000000E+00	    1.600000E-03	    1.600000E-03	    8.010000E+02	    0.000000E+00	    0.000000E+00	    0.000000E+00	    0.000000E+00	
    8.813041E-03	    3.195240E-03	    0.000000E+00	   -1.000000E+00	    1.600000E-03	    1.600000E-03	    8.010000E+02	    0.000000E+00	    0.000000E+00	    0.000000E+00	    0.000000E+00	
    9.162169E-03	    2.811258E-03	    0.000000E+00	   -1.000000E+00	    1.600000E-03	    1.600000E-03	    8.010000E+02	    0.000000E+00	    0.000000E+00	    0.000000E+00	    0.000000E+00	
    9.471559E-03	    2.441459E-03	    0.000000E+00	   -1.000000E+00	    1.600000E-03	    1.600000E-03	    8.010000E+02	    0.000000E+00	    0.000000E+00	    0.000000E+00	    0.000000E+00	
    9.741532E-03	    2.092663E-03	    0.000000E+00	   -1.000000E+00	    1.600000E-03	    1.600000E-03	    8.010000E+02	    0.000000E+00	    0.000000E+00	    0.000000E+00	    0.000000E+00	
    9.973685E-03	    1.770344E-03	    0.000000E+00	   -1.000000E+00	    1.600000E-03	    1.600000E-03	    8.010000E+02	    0.000000E+00	    0.000000E+00	    0.000000E+00	    0.000000E+00	
    1.017059E-02	    1.478390E-03	    0.000000E+00	   -1.000000E+00	    1.600000E-03	    1.600000E-03	    8.010000E+02	    0.000000E+00	    0.000000E+00	    0.000000E+00	    0.000000E+00	
    1.033545E-02	    1.219018E-03	    0.000000E+00	   -1.000000E+00	    1.600000E-03	    1.600000E-03	    8.010000E+02	    0.000000E+00	    0.000000E+00	    0.000000E+00	    0.000000E+00	
    1.047185E-02	    9.928613E-04	    0.000000E+00	   -1.000000E+00	    1.600000E-03	    1.600000E-03	    8.010000E+02	    0.000000E+00	    0.000000E+00	    0.000000E+00	    0.000000E+00	
    1.058343E-02	    7.991693E-04	    0.000000E+00	   -1.000000E+00	    1.600000E-03	    1.600000E-03	    8.010000E+02	    0.000000E+00	    0.000000E+00	    0.000000E+00	    0.000000E+00	
    1.067374E-02	    6.360932E-04	    0.000000E+00	   -1.000000E+00	    1.600000E-03	    1.600000E-03	    8.010000E+02	    0.000000E+00	    0.000000E+00	    0.000000E+00	    0.000000E+00	
    1.074611E-02	    5.009999E-04	    0.000000E+00	   -1.000000E+00	    1.600000E-03	    1.600000E-03	    8.010000E+02	    0.000000E+00	    0.000000E+00	    0.000000E+00	    0.000000E+00	
    1.080354E-02	    3.907814E-04	    0.000000E+00	   -1.000000E+00	    1.600000E-03	    1.600000E-03	    8.010000E+02	    0.000000E+00	    0.000000E+00	    0.000000E+00	    0.000000E+00	
    1.084870E-02	    3.021297E-04	    0.000000E+00	   -1.000000E+00	    1.600000E-03	    1.600000E-03	    8.010000E+02	    0.000000E+00	    0.000000E+00	    0.000000E+00	    0.000000E+00	
    1.088390E-02	    2.317590E-04	    0.000000E+00	   -1.000000E+00	    1.600000E-03	    1.600000E-03	    8.010000E+02	    0.000000E+00	    0.000000E+00	    0.000000E+00	    0.000000E+00	
    1.091111E-02	    1.765704E-04	    0.000000E+00	   -1.000000E+00	    1.600000E-03	    1.600000E-03	    8.010000E+02	    0.000000E+00	    0.000000E+00	    0.000000E+00	    0.000000E+00	
    1.093198E-02	    1.337585E-04	    0.000000E+00	   -1.000000E+00	    1.600000E-03	    1.600000E-03	    8.010000E+02	    0.000000E+00	    0.000000E+00	    0.000000E+00	    0.000000E+00	
    1.094787E-02	    1.008686E-04	    0.000000E+00	   -1.000000E+00	    1.600000E-03	    1.600000E-03	    8.010000E+02	    0.000000E+00	    0.000000E+00	    0.000000E+00	    0.000000E+00	
    1.095989E-02	    7.581408E-05	    0.000000E+00	   -1.000000E+00	    1.600000E-03	    1.600000E-03	    8.010000E+02	    0.000000E+00	    0.000000E+00	    0.000000E+00	    0.000000E+00	
    1.096894E-02	    5.686501E-05	    0.000000E+00	   -1.000000E+00	    1.600000E-03	    1.600000E-03	    8.010000E+02	    0.000000E+00	    0.000000E+00	    0.000000E+00	    0.000000E+00	
    1.097257E-02	    4.922966E-05	    0.000000E+00	   -1.000000E+00	    1.600000E-03	    1.600000E-03	    8.010000E+02	    0.000000E+00	    0.000000E+00	    0.000000E+00	    0.000000E+00	
   -1.097243E-02	    4.916163E-05	    0.000000E+00	   -1.000000E+00	    1.600000E-03	    1.600000E-03	    8.010000E+02	    0.000000E+00	    0.000000E+00	    0.000000E+00	    0.000000E+00	
   -1.096878E-02	    5.678632E-05	    3.718078E-05	   -1.000000E+00	    1.600204E-03	    1.600000E-03	    8.010000E+02	    1.361565E-06	    1.721753E-03	    1.569561E+02	    4.143609E+04	
   -1.095967E-02	    7.570879E-05	    1.129501E-04	   -1.000000E+00	    1.600178E-03	    1.600000E-03	    8.010000E+02	    1.188048E-06	    7.374875E-04	    3.300277E+01	    2.156445E+05	
   -1.094758E-02	    1.007278E-04	    1.970028E-04	   -1.000000E+00	    1.600235E-03	    1.600000E-03	    8.010000E+02	    1.564065E-06	    7.220838E-04	    2.403230E+01	    3.705746E+05	
   -1.093159E-02	    1.335707E-04	    2.947137E-04	   -1.000000E+00	    1.600345E-03	    1.600000E-03	    8.010000E+02	    2.300684E-06	    8.885143E-04	    2.473699E+01	    4.715908E+05	
   -1.091060E-02	    1.763205E-04	    4.116276E-04	   -1.000000E+00	    1.600504E-03	    1.600000E-03	    8.010000E+02	    3.361357E-06	    1.088407E-03	    2.540640E+01	    5.278738E+05	
   -1.088323E-02	    2.314276E-04	    5.534134E-04	   -1.000000E+00	    1.600722E-03	    1.600000E-03	    8.010000E+02	    4.810399E-06	    1.293878E-03	    2.508883E+01	    5.537497E+05	
   -1.084783E-02	    3.016921E-04	    7.263829E-04	   -1.000000E+00	    1.601014E-03	    1.600000E-03	    8.010000E+02	    6.759869E-06	    1.503496E-03	    2.410689E+01	    5.612253E+05	
   -1.080243E-02	    3.902063E-04	    9.375243E-04	   -1.000000E+00	    1.601403E-03	    1.600000E-03	    8.010000E+02	    9.351794E-06	    1.720064E-03	    2.280706E+01	    5.586798E+05	
   -1.074469E-02	    5.002480E-04	    1.194183E-03	   -1.000000E+00	    1.601913E-03	    1.600000E-03	    8.010000E+02	    1.275005E-05	    1.945287E-03	    2.139590E+01	    5.512695E+05	
   -1.067195E-02	    6.351159E-04	    1.503644E-03	   -1.000000E+00	    1.602570E-03	    1.600000E-03	    8.010000E+02	    1.713292E-05	    2.179073E-03	    1.997962E+01	    5.419081E+05	
   -1.058120E-02	    7.979071E-04	    1.872649E-03	   -1.000000E+00	    1.603402E-03	    1.600000E-03	    8.010000E+02	    2.268282E-05	    2.419836E-03	    1.861015E+01	    5.321433E+05	
   -1.046911E-02	    9.912426E-04	    2.306831E-03	   -1.000000E+00	    1.604436E-03	    1.600000E-03	    8.010000E+02	    2.957226E-05	    2.664916E-03	    1.731241E+01	    5.227420E+05	
   -1.033213E-02	    1.216958E-03	    2.810071E-03	   -1.000000E+00	    1.605692E-03	    1.600000E-03	    8.010000E+02	    3.794632E-05	    2.910961E-03	    1.609823E+01	    5.140387E+05	
   -1.016662E-02	    1.475791E-03	    3.383830E-03	   -1.000000E+00	    1.607186E-03	    1.600000E-03	    8.010000E+02	    4.790338E-05	    3.154288E-03	    1.497310E+01	    5.061326E+05	
   -9.969028E-03	    1.767096E-03	    4.026552E-03	   -1.000000E+00	    1.608921E-03	    1.600000E-03	    8.010000E+02	    5.947647E-05	    3.391216E-03	    1.393929E+01	    4.990008E+05	
   -9.736156E-03	    2.088645E-03	    4.733236E-03	   -1.000000E+00	    1.610893E-03	    1.600000E-03	    8.010000E+02	    7.261829E-05	    3.618354E-03	    1.299724E+01	    4.925634E+05	
   -9.465461E-03	    2.436548E-03	    5.495282E-03	   -1.000000E+00	    1.613079E-03	    1.600000E-03	    8.010000E+02	    8.719271E-05	    3.832823E-03	    1.214598E+01	    4.867217E+05	
   -9.155378E-03	    2.805328E-03	    6.300683E-03	   -1.000000E+00	    1.615446E-03	    1.600000E-03	    8.010000E+02	    1.029752E-04	    4.032402E-03	    1.138335E+01	    4.813810E+05	
   -8.805618E-03	    3.188178E-03	    7.134602E-03	   -1.000000E+00	    1.617949E-03	    1.600000E-03	    8.010000E+02	    1.196631E-04	    4.215577E-03	    1.070604E+01	    4.764634E+05	
   -8.417386E-03	    3.577366E-03	    7.980288E-03	   -1.000000E+00	    1.620534E-03	    1.600000E-03	    8.010000E+02	    1.368950E-04	    4.381531E-03	    1.010972E+01	    4.719128E+05	
   -7.993483E-03	    3.964764E-03	    8.820229E-03	   -1.000000E+00	    1.623142E-03	    1.600000E-03	    8.010000E+02	    1.542778E-04	    4.530068E-03	    9.589174E+00	    4.676959E+05	
   -7.538241E-03	    4.342425E-03	    9.637399E-03	   -1.000000E+00	    1.625712E-03	    1.600000E-03	    8.010000E+02	    1.714159E-04	    4.661513E-03	    9.138558E+00	    4.637984E+05	
   -7.057305E-03	    4.703128E-03	    1.041643E-02	   -1.000000E+00	    1.628191E-03	    1.600000E-03	    8.010000E+02	    1.879411E-04	    4.776590E-03	    8.751635E+00	    4.602190E+05	
   -6.557282E-03	    5.040822E-03	    1.114454E-02	   -1.000000E+00	    1.630531E-03	    1.600000E-03	    8.010000E+02	    2.035368E-04	    4.876319E-03	    8.422023E+00	    4.569630E+05	
   -6.045309E-03	    5.350921E-03	    1.181214E-02	   -1.000000E+00	    1.632693E-03	    1.600000E-03	    8.010000E+02	    2.179546E-04	    4.961905E-03	    8.143403E+00	    4.540360E+05	
   -5.528600E-03	    5.630422E-03	    1.241306E-02	   -1.000000E+00	    1.634653E-03	    1.600000E-03	    8.010000E+02	    2.310229E-04	    5.034655E-03	    7.909689E+00	    4.514393E+05	
   -5.014032E-03	    5.877869E-03	    1.294443E-02	   -1.000000E+00	    1.636397E-03	    1.600000E-03	    8.010000E+02	    2.426467E-04	    5.095912E-03	    7.715152E+00	    4.491677E+05	
   -4.507815E-03	    6.093186E-03	    1.340633E-02	   -1.000000E+00	    1.637920E-03	    1.600000E-03	    8.010000E+02	    2.528002E-04	    5.147001E-03	    7.554505E+00	    4.472089E+05	
   -4.015266E-03	    6.277426E-03	    1.380120E-02	   -1.000000E+00	    1.639227E-03	    1.600000E-03	    8.010000E+02	    2.615157E-04	    5.189189E-03	    7.422944E+00	    4.455442E+05	
   -3.540695E-03	    6.432489E-03	    1.413328E-02	   -1.000000E+00	    1.640330E-03	    1.600000E-03	    8.010000E+02	    2.688698E-04	    5.223665E-03	    7.316166E+00	    4.441502E+05	
   -3.087380E-03	    6.560844E-03	    1.440798E-02	   -1.000000E+00	    1.641245E-03	    1.600000E-03	    8.010000E+02	    2.749698E-04	    5.251521E-03	    7.230364E+00	    4.430004E+05	
   -2.657620E-03	    6.665279E-03	    1.463135E-02	   -1.000000E+00	    1.641991E-03	    1.600000E-03	    8.010000E+02	    2.799411E-04	    5.273744E-03	    7.162200E+00	    4.420670E+05	
   -2.252838E-03	    6.748692E-03	    1.480966E-02	   -1.000000E+00	    1.642587E-03	    1.600000E-03	    8.010000E+02	    2.839166E-04	    5.291213E-03	    7.108775E+00	    4.413221E+05	
   -1.873706E-03	    6.813941E-03	    1.494907E-02	   -1.000000E+00	    1.643054E-03	    1.600000E-03	    8.010000E+02	    2.870293E-04	    5.304705E-03	    7.067588E+00	    4.407391E+05	
   -1.520280E-03	    6.863728E-03	    1.505539E-02	   -1.000000E+00	    1.643411E-03	    1.600000E-03	    8.010000E+02	    2.894060E-04	    5.314893E-03	    7.036499E+00	    4.402933E+05	
   -1.192139E-03	    6.900539E-03	    1.513395E-02	   -1.000000E+00	    1.643675E-03	    1.600000E-03	    8.010000E+02	    2.911639E-04	    5.322362E-03	    7.013686E+00	    4.399622E+05	
   -8.885004E-04	    6.926599E-03	    1.518952E-02	   -1.000000E+00	    1.643861E-03	    1.600000E-03	    8.010000E+02	    2.924085E-04	    5.327609E-03	    6.997609E+00	    4.397258E+05	
   -6.083238E-04	    6.943867E-03	    1.522630E-02	   -1.000000E+00	    1.643985E-03	    1.600000E-03	    8.010000E+02	    2.932330E-04	    5.331057E-03	    6.986969E+00	    4.395667E+05	
   -3.504005E-04	    6.954038E-03	    1.524790E-02	   -1.000000E+00	    1.644058E-03	    1.600000E-03	    8.010000E+02	    2.937181E-04	    5.333063E-03	    6.980679E+00	    4.394698E+05	
   -1.134209E-04	    6.958556E-03	    1.525741E-02	   -1.000000E+00	    1.644090E-03	    1.600000E-03	    8.010000E+02	    2.939329E-04	    5.333924E-03	    6.977832E+00	    4.394220E+05	
    1.134209E-04	    6.958556E-03	    1.525741E-02	   -1.000000E+00	    1.644090E-03	    1.600000E-03	    8.010000E+02	    2.939329E-04	    5.333924E-03	    6.977832E+00	    4.394220E+05	
    3.504005E-04	    6.954038E-03	    1.524790E-02	   -1.000000E+00	    1.644058E-03	    1.600000E-03	    8.010000E+02	    2.937181E-04	    5.333063E-03	    6.980679E+00	    4.394698E+05	
    6.083238E-04	    6.943867E-03	    1.522630E-02	   -1.000000E+00	    1.643985E-03	    1.600000E-03	    8.010000E+02	    2.932330E-04	    5.331057E-03	    6.986969E+00	    4.395668E+05	
    8.885004E-04	    6.926599E-03	    1.518952E-02	   -1.000000E+00	    1.643861E-03	    1.600000E-03	    8.010000E+02	    2.924085E-04	    5.327609E-03	    6.997609E+00	    4.397258E+05	
    1.192139E-03	    6.900539E-03	    1.513395E-02	   -1.000000E+00	    1.643675E-03	    1.600000E-03	    8.010000E+02	    2.911639E-04	    5.322362E-03	    7.013687E+00	    4.399622E+05	
    1.520280E-03	    6.863728E-03	    1.505539E-02	   -1.000000E+00	    1.643411E-03	    1.600000E-03	    8.010000E+02	    2.894060E-04	    5.314893E-03	    7.036499E+00	    4.402933E+05	
    1.873706E-03	    6.813941E-03	    1.494907E-02	   -1.000000E+00	    1.643054E-03	    1.600000E-03	    8.010000E+02	    2.870293E-04	    5.304705E-03	    7.067588E+00	    4.407391E+05	
    2.252838E-03	    6.748692E-03	    1.480966E-02	   -1.000000E+00	    1.642587E-03	    1.600000E-03	    8.010000E+02	    2.839166E-04	    5.291213E-03	    7.108775E+00	    4.413221E+05	
    2.657620E-03	    6.665279E-03	    1.463135E-02	   -1.000000E+00	    1.641991E-03	    1.600000E-03	    8.010000E+02	    2.799411E-04	    5.273744E-03	    7.162201E+00	    4.420670E+05	
    3.087380E-03	    6.560844E-03	    1.440798E-02	   -1.000000E+00	    1.641245E-03	    1.600000E-03	    8.010000E+02	    2.749698E-04	    5.251521E-03	    7.230365E+00	    4.430005E+05	
    3.540695E-03	    6.432489E-03	    1.413328E-02	   -1.000000E+00	    1.640330E-03	    1.600000E-03	    8.010000E+02	    2.688698E-04	    5.223665E-03	    7.316167E+00	    4.441503E+05	
    4.015266E-03	    6.277426E-03	    1.380120E-02	   -1.000000E+00	    1.639227E-03	    1.600000E-03	    8.010000E+02	    2.615157E-04	    5.189189E-03	    7.422945E+00	    4.455443E+05	
    4.507815E-03	    6.093186E-03	    1.340633E-02	   -1.000000E+00	    1.637920E-03	    1.600000E-03	    8.010000E+02	    2.528002E-04	    5.147001E-03	    7.554506E+00	    4.472090E+05	
    5.014032E-03	    5.877869E-03	    1.294443E-02	   -1.000000E+00	    1.636397E-03	    1.600000E-03	    8.010000E+02	    2.426467E-04	    5.095913E-03	    7.715154E+00	    4.491678E+05	
    5.528600E-03	    5.630422E-03	    1.241306E-02	   -1.000000E+00	    1.634653E-03	    1.600000E-03	    8.010000E+02	    2.310229E-04	    5.034656E-03	    7.909690E+00	    4.514394E+05	
    6.045309E-03	    5.350921E-03	    1.181214E-02	   -1.000000E+00	    1.632693E-03	    1.600000E-03	    8.010000E+02	    2.179546E-04	    4.961905E-03	    8.143405E+00	    4.540361E+05	
    6.557282E-03	    5.040822E-03	    1.114454E-02	   -1.000000E+00	    1.630531E-03	    1.600000E-03	    8.010000E+02	    2.035368E-04	    4.876320E-03	    8.422025E+00	    4.569632E+05	
    7.057305E-03	    4.703128E-03	    1.041643E-02	   -1.000000E+00	    1.628191E-03	    1.600000E-03	    8.010000E+02	    1.879412E-04	    4.776591E-03	    8.751637E+00	    4.602192E+05	
    7.538241E-03	    4.342425E-03	    9.637401E-03	   -1.000000E+00	    1.625712E-03	    1.600000E-03	    8.010000E+02	    1.714159E-04	    4.661514E-03	    9.138561E+00	    4.637986E+05	
    7.993483E-03	    3.964764E-03	    8.820231E-03	   -1.000000E+00	    1.623142E-03	    1.600000E-03	    8.010000E+02	    1.542778E-04	    4.530069E-03	    9.589178E+00	    4.676962E+05	
    8.417386E-03	    3.577366E-03	    7.980291E-03	   -1.000000E+00	    1.620534E-03	    1.600000E-03	    8.010000E+02	    1.368950E-04	    4.381532E-03	    1.010972E+01	    4.719131E+05	
    8.805618E-03	    3.188178E-03	    7.134605E-03	   -1.000000E+00	    1.617949E-03	    1.600000E-03	    8.010000E+02	    1.196631E-04	    4.215578E-03	    1.070605E+01	    4.764638E+05	
    9.155378E-03	    2.805328E-03	    6.300686E-03	   -1.000000E+00	    1.615446E-03	    1.600000E-03	    8.010000E+02	    1.029752E-04	    4.032403E-03	    1.138335E+01	    4.813815E+05	
    9.465461E-03	    2.436548E-03	    5.495285E-03	   -1.000000E+00	    1.613079E-03	    1.600000E-03	    8.010000E+02	    8.719272E-05	    3.832824E-03	    1.214598E+01	    4.867222E+05	
    9.736156E-03	    2.088645E-03	    4.733240E-03	   -1.000000E+00	    1.610893E-03	    1.600000E-03	    8.010000E+02	    7.261829E-05	    3.618355E-03	    1.299724E+01	    4.925641E+05	
    9.969028E-03	    1.767096E-03	    4.026556E-03	   -1.000000E+00	    1.608921E-03	    1.600000E-03	    8.010000E+02	    5.947648E-05	    3.391217E-03	    1.393930E+01	    4.990017E+05	
    1.016662E-02	    1.475791E-03	    3.383834E-03	   -1.000000E+00	    1.607186E-03	    1.600000E-03	    8.010000E+02	    4.790338E-05	    3.154289E-03	    1.497310E+01	    5.061338E+05	
    1.033213E-02	    1.216958E-03	    2.810075E-03	   -1.000000E+00	    1.605692E-03	    1.600000E-03	    8.010000E+02	    3.794633E-05	    2.910961E-03	    1.609823E+01	    5.140403E+05	
    1.046911E-02	    9.912426E-04	    2.306836E-03	   -1.000000E+00	    1.604436E-03	    1.600000E-03	    8.010000E+02	    2.957226E-05	    2.664915E-03	    1.731240E+01	    5.227442E+05	
    1.058120E-02	    7.979071E-04	    1.872654E-03	   -1.000000E+00	    1.603402E-03	    1.600000E-03	    8.010000E+02	    2.268281E-05	    2.419834E-03	    1.861012E+01	    5.321463E+05	
    1.067195E-02	    6.351159E-04	    1.503650E-03	   -1.000000E+00	    1.602570E-03	    1.600000E-03	    8.010000E+02	    1.713290E-05	    2.179069E-03	    1.997957E+01	    5.419123E+05	
    1.074469E-02	    5.002480E-04	    1.194189E-03	   -1.000000E+00	    1.601913E-03	    1.600000E-03	    8.010000E+02	    1.275003E-05	    1.945280E-03	    2.139579E+01	    5.512753E+05	
    1.080243E-02	    3.902063E-04	    9.375312E-04	   -1.000000E+00	    1.601403E-03	    1.600000E-03	    8.010000E+02	    9.351760E-06	    1.720051E-03	    2.280681E+01	    5.586880E+05	
    1.084783E-02	    3.016921E-04	    7.263905E-04	   -1.000000E+00	    1.601014E-03	    1.600000E-03	    8.010000E+02	    6.759822E-06	    1.503475E-03	    2.410638E+01	    5.612371E+05	
    1.088323E-02	    2.314276E-04	    5.534222E-04	   -1.000000E+00	    1.600722E-03	    1.600000E-03	    8.010000E+02	    4.810335E-06	    1.293844E-03	    2.508783E+01	    5.537673E+05	