Title="Fields"
Variables="X""Y""Velocity""Phi""Effective Viscosity""Dynamic Viscosity""Density""Eddy Viscosity""K""Omega""S""F1SST""distance""GEN"
Zone I=52 J=52 F=POINT
   -2.622039E-02	    1.215140E-04	    0.000000E+00	    0.000000E+00	    1.000000E-03	    1.000000E-03	    1.000000E+03	    0.000000E+00	    0.000000E+00	    8.815582E+07	    0.000000E+00	    1.000000E+00	    0.000000E+00	    0.000000E+00	
   -2.623223E-02	    1.531555E-04	    0.000000E+00	    0.000000E+00	    1.000000E-03	    1.000000E-03	    1.000000E+03	    0.000000E+00	    0.000000E+00	    8.815582E+07	    0.000000E+00	    1.000000E+00	    0.000000E+00	    0.000000E+00	
   -2.626551E-02	    2.427950E-04	    0.000000E+00	    0.000000E+00	    1.000000E-03	    1.000000E-03	    1.000000E+03	    0.000000E+00	    0.000000E+00	    3.507914E+07	    0.000000E+00	    1.000000E+00	    0.000000E+00	    0.000000E+00	
   -2.631665E-02	    3.823779E-04	    0.000000E+00	    0.000000E+00	    1.000000E-03	    1.000000E-03	    1.000000E+03	    0.000000E+00	    0.000000E+00	    1.414368E+07	    0.000000E+00	    1.000000E+00	    0.000000E+00	    0.000000E+00	
   -2.639320E-02	    5.957546E-04	    0.000000E+00	    0.000000E+00	    1.000000E-03	    1.000000E-03	    1.000000E+03	    0.000000E+00	    0.000000E+00	    5.826971E+06	    0.000000E+00	    1.000000E+00	    0.000000E+00	    0.000000E+00	
   -2.650409E-02	    9.149108E-04	    0.000000E+00	    0.000000E+00	    1.000000E-03	    1.000000E-03	    1.000000E+03	    0.000000E+00	    0.000000E+00	    2.470954E+06	    0.000000E+00	    1.000000E+00	    0.000000E+00	    0.000000E+00	
   -2.665826E-02	    1.380791E-03	    0.000000E+00	    0.000000E+00	    1.000000E-03	    1.000000E-03	    1.000000E+03	    0.000000E+00	    0.000000E+00	    1.085003E+06	    0.000000E+00	    1.000000E+00	    0.000000E+00	    0.000000E+00	
   -2.686205E-02	    2.043218E-03	    0.000000E+00	    0.000000E+00	    1.000000E-03	    1.000000E-03	    1.000000E+03	    0.000000E+00	    0.000000E+00	    4.956222E+05	    0.000000E+00	    1.000000E+00	    0.000000E+00	    0.000000E+00	
   -2.711474E-02	    2.959428E-03	    0.000000E+00	    0.000000E+00	    1.000000E-03	    1.000000E-03	    1.000000E+03	    0.000000E+00	    0.000000E+00	    2.363170E+05	    0.000000E+00	    1.000000E+00	    0.000000E+00	    0.000000E+00	
   -2.740244E-02	    4.190670E-03	    0.000000E+00	    0.000000E+00	    1.000000E-03	    1.000000E-03	    1.000000E+03	    0.000000E+00	    0.000000E+00	    1.179037E+05	    0.000000E+00	    1.000000E+00	    0.000000E+00	    0.000000E+00	
   -2.769099E-02	    5.796092E-03	    0.000000E+00	    0.000000E+00	    1.000000E-03	    1.000000E-03	    1.000000E+03	    0.000000E+00	    0.000000E+00	    6.167322E+04	    0.000000E+00	    1.000000E+00	    0.000000E+00	    0.000000E+00	
   -2.791952E-02	    7.823116E-03	    0.000000E+00	    0.000000E+00	    1.000000E-03	    1.000000E-03	    1.000000E+03	    0.000000E+00	    0.000000E+00	    3.388917E+04	    0.000000E+00	    1.000000E+00	    0.000000E+00	    0.000000E+00	
   -2.799782E-02	    1.029399E-02	    0.000000E+00	    0.000000E+00	    1.000000E-03	    1.000000E-03	    1.000000E+03	    0.000000E+00	    0.000000E+00	    1.961289E+04	    0.000000E+00	    1.000000E+00	    0.000000E+00	    0.000000E+00	
   -2.781128E-02	    1.318989E-02	    0.000000E+00	    0.000000E+00	    1.000000E-03	    1.000000E-03	    1.000000E+03	    0.000000E+00	    0.000000E+00	    1.199846E+04	    0.000000E+00	    1.000000E+00	    0.000000E+00	    0.000000E+00	
   -2.723691E-02	    1.643684E-02	    0.000000E+00	    0.000000E+00	    1.000000E-03	    1.000000E-03	    1.000000E+03	    0.000000E+00	    0.000000E+00	    7.798552E+03	    0.000000E+00	    1.000000E+00	    0.000000E+00	    0.000000E+00	
   -2.617001E-02	    1.990094E-02	    0.000000E+00	    0.000000E+00	    1.000000E-03	    1.000000E-03	    1.000000E+03	    0.000000E+00	    0.000000E+00	    5.410490E+03	    0.000000E+00	    1.000000E+00	    0.000000E+00	    0.000000E+00	
   -2.455503E-02	    2.340000E-02	    0.000000E+00	    0.000000E+00	    1.000000E-03	    1.000000E-03	    1.000000E+03	    0.000000E+00	    0.000000E+00	    4.011120E+03	    0.000000E+00	    1.000000E+00	    0.000000E+00	    0.000000E+00	
   -2.240826E-02	    2.673347E-02	    0.000000E+00	    0.000000E+00	    1.000000E-03	    1.000000E-03	    1.000000E+03	    0.000000E+00	    0.000000E+00	    3.161851E+03	    0.000000E+00	    1.000000E+00	    0.000000E+00	    0.000000E+00	
   -1.982051E-02	    2.972194E-02	    0.000000E+00	    0.000000E+00	    1.000000E-03	    1.000000E-03	    1.000000E+03	    0.000000E+00	    0.000000E+00	    2.633823E+03	    0.000000E+00	    1.000000E+00	    0.000000E+00	    0.000000E+00	
   -1.693692E-02	    3.224114E-02	    0.000000E+00	    0.000000E+00	    1.000000E-03	    1.000000E-03	    1.000000E+03	    0.000000E+00	    0.000000E+00	    2.298359E+03	    0.000000E+00	    1.000000E+00	    0.000000E+00	    0.000000E+00	
   -1.392308E-02	    3.423745E-02	    0.000000E+00	    0.000000E+00	    1.000000E-03	    1.000000E-03	    1.000000E+03	    0.000000E+00	    0.000000E+00	    2.083014E+03	    0.000000E+00	    1.000000E+00	    0.000000E+00	    0.000000E+00	
   -1.093192E-02	    3.572226E-02	    0.000000E+00	    0.000000E+00	    1.000000E-03	    1.000000E-03	    1.000000E+03	    0.000000E+00	    0.000000E+00	    1.945313E+03	    0.000000E+00	    1.000000E+00	    0.000000E+00	    0.000000E+00	
   -8.082358E-03	    3.675262E-02	    0.000000E+00	    0.000000E+00	    1.000000E-03	    1.000000E-03	    1.000000E+03	    0.000000E+00	    0.000000E+00	    1.859194E+03	    0.000000E+00	    1.000000E+00	    0.000000E+00	    0.000000E+00	
   -5.452168E-03	    3.740854E-02	    0.000000E+00	    0.000000E+00	    1.000000E-03	    1.000000E-03	    1.000000E+03	    0.000000E+00	    0.000000E+00	    1.807939E+03	    0.000000E+00	    1.000000E+00	    0.000000E+00	    0.000000E+00	
   -3.081580E-03	    3.777440E-02	    0.000000E+00	    0.000000E+00	    1.000000E-03	    1.000000E-03	    1.000000E+03	    0.000000E+00	    0.000000E+00	    1.780463E+03	    0.000000E+00	    1.000000E+00	    0.000000E+00	    0.000000E+00	
   -9.819925E-04	    3.792727E-02	    0.000000E+00	    0.000000E+00	    1.000000E-03	    1.000000E-03	    1.000000E+03	    0.000000E+00	    0.000000E+00	    1.769200E+03	    0.000000E+00	    1.000000E+00	    0.000000E+00	    0.000000E+00	
    9.819925E-04	    3.792727E-02	    0.000000E+00	    0.000000E+00	    1.000000E-03	    1.000000E-03	    1.000000E+03	    0.000000E+00	    0.000000E+00	    1.769200E+03	    0.000000E+00	    1.000000E+00	    0.000000E+00	    0.000000E+00	
    3.081580E-03	    3.777440E-02	    0.000000E+00	    0.000000E+00	    1.000000E-03	    1.000000E-03	    1.000000E+03	    0.000000E+00	    0.000000E+00	    1.780463E+03	    0.000000E+00	    1.000000E+00	    0.000000E+00	    0.000000E+00	
    5.452168E-03	    3.740854E-02	    0.000000E+00	    0.000000E+00	    1.000000E-03	    1.000000E-03	    1.000000E+03	    0.000000E+00	    0.000000E+00	    1.807939E+03	    0.000000E+00	    1.000000E+00	    0.000000E+00	    0.000000E+00	
    8.082358E-03	    3.675262E-02	    0.000000E+00	    0.000000E+00	    1.000000E-03	    1.000000E-03	    1.000000E+03	    0.000000E+00	    0.000000E+00	    1.859194E+03	    0.000000E+00	    1.000000E+00	    0.000000E+00	    0.000000E+00	
    1.093192E-02	    3.572226E-02	    0.000000E+00	    0.000000E+00	    1.000000E-03	    1.000000E-03	    1.000000E+03	    0.000000E+00	    0.000000E+00	    1.945313E+03	    0.000000E+00	    1.000000E+00	    0.000000E+00	    0.000000E+00	
    1.392308E-02	    3.423745E-02	    0.000000E+00	    0.000000E+00	    1.000000E-03	    1.000000E-03	    1.000000E+03	    0.000000E+00	    0.000000E+00	    2.083014E+03	    0.000000E+00	    1.000000E+00	    0.000000E+00	    0.000000E+00	
    1.693692E-02	    3.224114E-02	    0.000000E+00	    0.000000E+00	    1.000000E-03	    1.000000E-03	    1.000000E+03	    0.000000E+00	    0.000000E+00	    2.298359E+03	    0.000000E+00	    1.000000E+00	    0.000000E+00	    0.000000E+00	
    1.982051E-02	    2.972194E-02	    0.000000E+00	    0.000000E+00	    1.000000E-03	    1.000000E-03	    1.000000E+03	    0.000000E+00	    0.000000E+00	    2.633823E+03	    0.000000E+00	    1.000000E+00	    0.000000E+00	    0.000000E+00	
    2.240826E-02	    2.673347E-02	    0.000000E+00	    0.000000E+00	    1.000000E-03	    1.000000E-03	    1.000000E+03	    0.000000E+00	    0.000000E+00	    3.161851E+03	    0.000000E+00	    1.000000E+00	    0.000000E+00	    0.000000E+00	
    2.455503E-02	    2.340000E-02	    0.000000E+00	    0.000000E+00	    1.000000E-03	    1.000000E-03	    1.000000E+03	    0.000000E+00	    0.000000E+00	    4.011120E+03	    0.000000E+00	    1.000000E+00	    0.000000E+00	    0.000000E+00	
    2.617001E-02	    1.990094E-02	    0.000000E+00	    0.000000E+00	    1.000000E-03	    1.000000E-03	    1.000000E+03	    0.000000E+00	    0.000000E+00	    5.410490E+03	    0.000000E+00	    1.000000E+00	    0.000000E+00	    0.000000E+00	
    2.723691E-02	    1.643684E-02	    0.000000E+00	    0.000000E+00	    1.000000E-03	    1.000000E-03	    1.000000E+03	    0.000000E+00	    0.000000E+00	    7.798552E+03	    0.000000E+00	    1.000000E+00	    0.000000E+00	    0.000000E+00	
    2.781128E-02	    1.318989E-02	    0.000000E+00	    0.000000E+00	    1.000000E-03	    1.000000E-03	    1.000000E+03	    0.000000E+00	    0.000000E+00	    1.199846E+04	    0.000000E+00	    1.000000E+00	    0.000000E+00	    0.000000E+00	
    2.799782E-02	    1.029399E-02	    0.000000E+00	    0.000000E+00	    1.000000E-03	    1.000000E-03	    1.000000E+03	    0.000000E+00	    0.000000E+00	    1.961289E+04	    0.000000E+00	    1.000000E+00	    0.000000E+00	    0.000000E+00	
    2.791952E-02	    7.823116E-03	    0.000000E+00	    0.000000E+00	    1.000000E-03	    1.000000E-03	    1.000000E+03	    0.000000E+00	    0.000000E+00	    3.388917E+04	    0.000000E+00	    1.000000E+00	    0.000000E+00	    0.000000E+00	
    2.769099E-02	    5.796092E-03	    0.000000E+00	    0.000000E+00	    1.000000E-03	    1.000000E-03	    1.000000E+03	    0.000000E+00	    0.000000E+00	    6.167322E+04	    0.000000E+00	    1.000000E+00	    0.000000E+00	    0.000000E+00	
    2.740244E-02	    4.190670E-03	    0.000000E+00	    0.000000E+00	    1.000000E-03	    1.000000E-03	    1.000000E+03	    0.000000E+00	    0.000000E+00	    1.179037E+05	    0.000000E+00	    1.000000E+00	    0.000000E+00	    0.000000E+00	
    2.711474E-02	    2.959428E-03	    0.000000E+00	    0.000000E+00	    1.000000E-03	    1.000000E-03	    1.000000E+03	    0.000000E+00	    0.000000E+00	    2.363170E+05	    0.000000E+00	    1.000000E+00	    0.000000E+00	    0.000000E+00	
    2.686205E-02	    2.043218E-03	    0.000000E+00	    0.000000E+00	    1.000000E-03	    1.000000E-03	    1.000000E+03	    0.000000E+00	    0.000000E+00	    4.956222E+05	    0.000000E+00	    1.000000E+00	    0.000000E+00	    0.000000E+00	
    2.665826E-02	    1.380791E-03	    0.000000E+00	    0.000000E+00	    1.000000E-03	    1.000000E-03	    1.000000E+03	    0.000000E+00	    0.000000E+00	    1.085003E+06	    0.000000E+00	    1.000000E+00	    0.000000E+00	    0.000000E+00	
    2.650409E-02	    9.149108E-04	    0.000000E+00	    0.000000E+00	    1.000000E-03	    1.000000E-03	    1.000000E+03	    0.000000E+00	    0.000000E+00	    2.470954E+06	    0.000000E+00	    1.000000E+00	    0.000000E+00	    0.000000E+00	
    2.639320E-02	    5.957546E-04	    0.000000E+00	    0.000000E+00	    1.000000E-03	    1.000000E-03	    1.000000E+03	    0.000000E+00	    0.000000E+00	    5.826971E+06	    0.000000E+00	    1.000000E+00	    0.000000E+00	    0.000000E+00	
    2.631665E-02	    3.823779E-04	    0.000000E+00	    0.000000E+00	    1.000000E-03	    1.000000E-03	    1.000000E+03	    0.000000E+00	    0.000000E+00	    1.414368E+07	    0.000000E+00	    1.000000E+00	    0.000000E+00	    0.000000E+00	
    2.626551E-02	    2.427950E-04	    0.000000E+00	    0.000000E+00	    1.000000E-03	    1.000000E-03	    1.000000E+03	    0.000000E+00	    0.000000E+00	    3.507914E+07	    0.000000E+00	    1.000000E+00	    0.000000E+00	    0.000000E+00	
    2.623223E-02	    1.531555E-04	    0.000000E+00	    0.000000E+00	    1.000000E-03	    1.000000E-03	    1.000000E+03	    0.000000E+00	    0.000000E+00	    8.815582E+07	    0.000000E+00	    1.000000E+00	    0.000000E+00	    0.000000E+00	
    2.622039E-02	    1.215140E-04	    0.000000E+00	    0.000000E+00	    1.000000E-03	    1.000000E-03	    1.000000E+03	    0.000000E+00	    0.000000E+00	    0.000000E+00	    0.000000E+00	    1.000000E+00	    0.000000E+00	    0.000000E+00	
   -2.621937E-02	    1.218917E-04	    0.000000E+00	    0.000000E+00	    1.000000E-03	    1.000000E-03	    1.000000E+03	    0.000000E+00	    0.000000E+00	    0.000000E+00	    0.000000E+00	    1.000000E+00	    0.000000E+00	    0.000000E+00	
   -2.623094E-02	    1.536300E-04	    8.786197E-04	   -1.000000E+00	    1.640000E-03	    1.640000E-03	    7.900000E+02	    5.341785E-13	    5.960879E-08	    8.815582E+07	    2.657618E+05	    1.000000E+00	    1.372549E-06	    2.494715E+02	
   -2.626347E-02	    2.435404E-04	    2.125571E-03	   -1.000000E+00	    1.640000E-03	    1.640000E-03	    7.900000E+02	    3.342631E-12	    1.484261E-07	    3.507914E+07	    6.181661E+05	    1.000000E+00	    2.175850E-06	    3.789601E+02	
   -2.631342E-02	    3.835346E-04	    3.795839E-03	   -1.000000E+00	    1.640000E-03	    1.640000E-03	    7.900000E+02	    2.665467E-11	    4.772090E-07	    1.414368E+07	    7.947302E+05	    1.000000E+00	    3.426669E-06	    4.892585E+02	
   -2.638816E-02	    5.975158E-04	    6.186120E-03	   -1.000000E+00	    1.640000E-03	    1.640000E-03	    7.900000E+02	    1.746198E-10	    1.287981E-06	    5.826971E+06	    8.694988E+05	    1.000000E+00	    5.338656E-06	    5.396719E+02	
   -2.649632E-02	    9.175216E-04	    9.569029E-03	   -1.000000E+00	    1.640000E-03	    1.640000E-03	    7.900000E+02	    1.009590E-09	    3.157784E-06	    2.470954E+06	    8.820838E+05	    1.000000E+00	    8.198248E-06	    5.542907E+02	
   -2.664647E-02	    1.384525E-03	    1.431056E-02	   -1.000000E+00	    1.640001E-03	    1.640000E-03	    7.900000E+02	    5.332976E-09	    7.324423E-06	    1.085003E+06	    8.660291E+05	    1.000000E+00	    1.237195E-05	    5.543551E+02	
   -2.684447E-02	    2.048308E-03	    2.086963E-02	   -1.000000E+00	    1.640005E-03	    1.640000E-03	    7.900000E+02	    2.617244E-08	    1.641980E-05	    4.956222E+05	    8.409823E+05	    1.000000E+00	    1.830537E-05	    5.529203E+02	
   -2.708903E-02	    2.965930E-03	    2.973195E-02	   -1.000000E+00	    1.640022E-03	    1.640000E-03	    7.900000E+02	    1.197071E-07	    3.580864E-05	    2.363170E+05	    8.133094E+05	    1.000000E+00	    2.650989E-05	    5.546540E+02	
   -2.736567E-02	    4.198222E-03	    4.136851E-02	   -1.000000E+00	    1.640092E-03	    1.640000E-03	    7.900000E+02	    5.090928E-07	    7.597967E-05	    1.179037E+05	    7.844976E+05	    1.000000E+00	    3.753168E-05	    5.608455E+02	
   -2.763963E-02	    5.803553E-03	    5.627553E-02	   -1.000000E+00	    1.640363E-03	    1.640000E-03	    7.900000E+02	    2.015735E-06	    1.573631E-04	    6.167322E+04	    7.564888E+05	    1.000000E+00	    5.189651E-05	    5.742690E+02	
   -2.784968E-02	    7.828109E-03	    7.448164E-02	   -1.000000E+00	    1.641305E-03	    1.640000E-03	    7.900000E+02	    7.247507E-06	    3.109012E-04	    3.388917E+04	    7.193000E+05	    1.000000E+00	    7.002318E-05	    5.868098E+02	
   -2.790573E-02	    1.029243E-02	    9.654288E-02	   -1.000000E+00	    1.644299E-03	    1.640000E-03	    7.900000E+02	    2.388209E-05	    5.929075E-04	    1.961289E+04	    6.766933E+05	    1.000000E+00	    9.210315E-05	    6.071352E+02	
   -2.769418E-02	    1.317570E-02	    1.213832E-01	   -1.000000E+00	    1.652509E-03	    1.640000E-03	    7.900000E+02	    6.949499E-05	    1.055485E-03	    1.199846E+04	    6.150346E+05	    1.000000E+00	    1.179590E-04	    6.209312E+02	
   -2.709414E-02	    1.640216E-02	    1.495372E-01	   -1.000000E+00	    1.672216E-03	    1.640000E-03	    7.900000E+02	    1.789757E-04	    1.766774E-03	    7.798552E+03	    5.551932E+05	    1.000000E+00	    1.469208E-04	    6.379607E+02	
   -2.600411E-02	    1.983702E-02	    1.796485E-01	   -1.000000E+00	    1.709812E-03	    1.640000E-03	    7.900000E+02	    3.878426E-04	    2.656226E-03	    5.410490E+03	    5.031050E+05	    1.000000E+00	    1.777864E-04	    6.417705E+02	
   -2.437220E-02	    2.329888E-02	    2.094478E-01	   -1.000000E+00	    1.765967E-03	    1.640000E-03	    7.900000E+02	    6.998168E-04	    3.553226E-03	    4.011120E+03	    4.607270E+05	    1.000000E+00	    2.089291E-04	    6.266280E+02	
   -2.221785E-02	    2.658974E-02	    2.357013E-01	   -1.000000E+00	    1.831348E-03	    1.640000E-03	    7.900000E+02	    1.063044E-03	    4.254665E-03	    3.161851E+03	    4.265777E+05	    1.000000E+00	    2.385658E-04	    5.918325E+02	
   -1.963344E-02	    2.953409E-02	    2.583264E-01	   -1.000000E+00	    1.898981E-03	    1.640000E-03	    7.900000E+02	    1.438785E-03	    4.796841E-03	    2.633823E+03	    3.999882E+05	    1.000000E+00	    2.651086E-04	    5.577240E+02	
   -1.676366E-02	    3.201176E-02	    2.765815E-01	   -1.000000E+00	    1.960590E-03	    1.640000E-03	    7.900000E+02	    1.781055E-03	    5.181652E-03	    2.298359E+03	    3.796308E+05	    1.000000E+00	    2.874641E-04	    5.278503E+02	
   -1.377192E-02	    3.397235E-02	    2.905318E-01	   -1.000000E+00	    2.011475E-03	    1.640000E-03	    7.900000E+02	    2.063747E-03	    5.441537E-03	    2.083014E+03	    3.646972E+05	    1.000000E+00	    3.051666E-04	    5.041977E+02	
   -1.080815E-02	    3.542898E-02	    3.006501E-01	   -1.000000E+00	    2.050201E-03	    1.640000E-03	    7.900000E+02	    2.278895E-03	    5.611599E-03	    1.945313E+03	    3.542798E+05	    1.000000E+00	    3.183261E-04	    4.869458E+02	
   -7.988239E-03	    3.643898E-02	    3.075190E-01	   -1.000000E+00	    2.067741E-03	    1.640000E-03	    7.900000E+02	    2.376339E-03	    5.719490E-03	    1.859194E+03	    3.474363E+05	    1.000000E+00	    3.274544E-04	    4.751926E+02	
   -5.387559E-03	    3.708160E-02	    3.118321E-01	   -1.000000E+00	    2.075216E-03	    1.640000E-03	    7.900000E+02	    2.417868E-03	    5.784153E-03	    1.807939E+03	    3.432353E+05	    1.000000E+00	    3.332638E-04	    4.678267E+02	
   -3.044710E-03	    3.743993E-02	    3.142202E-01	   -1.000000E+00	    2.079301E-03	    1.640000E-03	    7.900000E+02	    2.440559E-03	    5.818812E-03	    1.780463E+03	    3.409319E+05	    1.000000E+00	    3.365037E-04	    4.637589E+02	
   -9.701962E-04	    3.758962E-02	    3.152063E-01	   -1.000000E+00	    2.080987E-03	    1.640000E-03	    7.900000E+02	    2.449929E-03	    5.832831E-03	    1.769200E+03	    3.399613E+05	    1.000000E+00	    3.378573E-04	    4.620497E+02	
    9.701962E-04	    3.758962E-02	    3.152063E-01	   -1.000000E+00	    2.080987E-03	    1.640000E-03	    7.900000E+02	    2.449929E-03	    5.832831E-03	    1.769200E+03	    3.399613E+05	    1.000000E+00	    3.378573E-04	    4.620497E+02	
    3.044710E-03	    3.743993E-02	    3.142202E-01	   -1.000000E+00	    2.079301E-03	    1.640000E-03	    7.900000E+02	    2.440559E-03	    5.818812E-03	    1.780463E+03	    3.409319E+05	    1.000000E+00	    3.365037E-04	    4.637589E+02	
    5.387559E-03	    3.708160E-02	    3.118321E-01	   -1.000000E+00	    2.075216E-03	    1.640000E-03	    7.900000E+02	    2.417868E-03	    5.784153E-03	    1.807939E+03	    3.432353E+05	    1.000000E+00	    3.332638E-04	    4.678267E+02	
    7.988239E-03	    3.643898E-02	    3.075190E-01	   -1.000000E+00	    2.067741E-03	    1.640000E-03	    7.900000E+02	    2.376339E-03	    5.719490E-03	    1.859194E+03	    3.474363E+05	    1.000000E+00	    3.274544E-04	    4.751926E+02	
    1.080815E-02	    3.542898E-02	    3.006501E-01	   -1.000000E+00	    2.050201E-03	    1.640000E-03	    7.900000E+02	    2.278895E-03	    5.611599E-03	    1.945313E+03	    3.542798E+05	    1.000000E+00	    3.183261E-04	    4.869458E+02	
    1.377192E-02	    3.397235E-02	    2.905318E-01	   -1.000000E+00	    2.011475E-03	    1.640000E-03	    7.900000E+02	    2.063747E-03	    5.441537E-03	    2.083014E+03	    3.646972E+05	    1.000000E+00	    3.051666E-04	    5.041977E+02	
    1.676366E-02	    3.201176E-02	    2.765815E-01	   -1.000000E+00	    1.960590E-03	    1.640000E-03	    7.900000E+02	    1.781055E-03	    5.181652E-03	    2.298359E+03	    3.796308E+05	    1.000000E+00	    2.874641E-04	    5.278503E+02	
    1.963344E-02	    2.953409E-02	    2.583264E-01	   -1.000000E+00	    1.898981E-03	    1.640000E-03	    7.900000E+02	    1.438785E-03	    4.796841E-03	    2.633823E+03	    3.999882E+05	    1.000000E+00	    2.651086E-04	    5.577240E+02	
    2.221785E-02	    2.658974E-02	    2.357013E-01	   -1.000000E+00	    1.831348E-03	    1.640000E-03	    7.900000E+02	    1.063044E-03	    4.254665E-03	    3.161851E+03	    4.265777E+05	    1.000000E+00	    2.385658E-04	    5.918325E+02	
    2.437220E-02	    2.329888E-02	    2.094478E-01	   -1.000000E+00	    1.765967E-03	    1.640000E-03	    7.900000E+02	    6.998168E-04	    3.553226E-03	    4.011120E+03	    4.607270E+05	    1.000000E+00	    2.089291E-04	    6.266280E+02	
    2.600411E-02	    1.983702E-02	    1.796485E-01	   -1.000000E+00	    1.709812E-03	    1.640000E-03	    7.900000E+02	    3.878426E-04	    2.656226E-03	    5.410490E+03	    5.031050E+05	    1.000000E+00	    1.777864E-04	    6.417705E+02	
    2.709414E-02	    1.640216E-02	    1.495372E-01	   -1.000000E+00	    1.672216E-03	    1.640000E-03	    7.900000E+02	    1.789757E-04	    1.766774E-03	    7.798552E+03	    5.551932E+05	    1.000000E+00	    1.469208E-04	    6.379607E+02	
    2.769418E-02	    1.317570E-02	    1.213832E-01	   -1.000000E+00	    1.652509E-03	    1.640000E-03	    7.900000E+02	    6.949499E-05	    1.055485E-03	    1.199846E+04	    6.150346E+05	    1.000000E+00	    1.179590E-04	    6.209312E+02	
    2.790573E-02	    1.029243E-02	    9.654288E-02	   -1.000000E+00	    1.644299E-03	    1.640000E-03	    7.900000E+02	    2.388209E-05	    5.929075E-04	    1.961289E+04	    6.766933E+05	    1.000000E+00	    9.210315E-05	    6.071352E+02	
    2.784968E-02	    7.828109E-03	    7.448164E-02	   -1.000000E+00	    1.641305E-03	    1.640000E-03	    7.900000E+02	    7.247507E-06	    3.109012E-04	    3.388917E+04	    7.193000E+05	    1.000000E+00	    7.002318E-05	    5.868098E+02	
    2.763963E-02	    5.803553E-03	    5.627553E-02	   -1.000000E+00	    1.640363E-03	    1.640000E-03	    7.900000E+02	    2.015735E-06	    1.573631E-04	    6.167322E+04	    7.564888E+05	    1.000000E+00	    5.189651E-05	    5.742690E+02	
    2.736567E-02	    4.198222E-03	    4.136851E-02	   -1.000000E+00	    1.640092E-03	    1.640000E-03	    7.900000E+02	    5.090928E-07	    7.597967E-05	    1.179037E+05	    7.844976E+05	    1.000000E+00	    3.753168E-05	    5.608455E+02	
    2.708903E-02	    2.965930E-03	    2.973195E-02	   -1.000000E+00	    1.640022E-03	    1.640000E-03	    7.900000E+02	    1.197071E-07	    3.580864E-05	    2.363170E+05	    8.133094E+05	    1.000000E+00	    2.650989E-05	    5.546540E+02	
    2.684447E-02	    2.048308E-03	    2.086963E-02	   -1.000000E+00	    1.640005E-03	    1.640000E-03	    7.900000E+02	    2.617244E-08	    1.641980E-05	    4.956222E+05	    8.409823E+05	    1.000000E+00	    1.830537E-05	    5.529203E+02	
    2.664647E-02	    1.384525E-03	    1.431056E-02	   -1.000000E+00	    1.640001E-03	    1.640000E-03	    7.900000E+02	    5.332976E-09	    7.324423E-06	    1.085003E+06	    8.660291E+05	    1.000000E+00	    1.237195E-05	    5.543551E+02	
    2.649632E-02	    9.175216E-04	    9.569029E-03	   -1.000000E+00	    1.640000E-03	    1.640000E-03	    7.900000E+02	    1.009590E-09	    3.157784E-06	    2.470954E+06	    8.820838E+05	    1.000000E+00	    8.198248E-06	    5.542907E+02	
    2.638816E-02	    5.975158E-04	    6.186120E-03	   -1.000000E+00	    1.640000E-03	    1.640000E-03	    7.900000E+02	    1.746198E-10	    1.287981E-06	    5.826971E+06	    8.694988E+05	    1.000000E+00	    5.338656E-06	    5.396719E+02	
    2.631342E-02	    3.835346E-04	    3.795839E-03	   -1.000000E+00	    1.640000E-03	    1.640000E-03	    7.900000E+02	    2.665467E-11	    4.772090E-07	    1.414368E+07	    7.947302E+05	    1.000000E+00	    3.426669E-06	    4.892585E+02	
    2.626347E-02	    2.435404E-04	    2.125571E-03	   -1.000000E+00	    1.640000E-03	    1.640000E-03	    7.900000E+02	    3.342631E-12	    1.484261E-07	    3.507914E+07	    6.181661E+05	    1.000000E+00	    2.175850E-06	    3.789601E+02	
    2.623094E-02	    1.536300E-04	    8.786197E-04	   -1.000000E+00	    1.640000E-03	    1.640000E-03	    7.900000E+02	    5.341785E-13	    5.960879E-08	    8.815582E+07	    2.657618E+05	    1.000000E+00	    1.372549E-06	    2.494715E+02	
    2.621937E-02	    1.218917E-04	    0.000000E+00	    0.000000E+00	    1.000000E-03	    1.000000E-03	    1.000000E+03	    0.000000E+00	    0.000000E+00	    1.455721E+05	    0.000000E+00	    1.000000E+00	    0.000000E+00	    0.000000E+00	
   -2.621700E-02	    1.227330E-04	    0.000000E+00	    0.000000E+00	    1.000000E-03	    1.000000E-03	    1.000000E+03	    0.000000E+00	    0.000000E+00	    1.455721E+05	    0.000000E+00	    1.000000E+00	    0.000000E+00	    0.000000E+00	
   -2.622794E-02	    1.546867E-04	    2.117849E-03	   -1.000000E+00	    1.640001E-03	    1.640000E-03	    7.900000E+02	    3.904931E-09	    7.195555E-07	    1.455721E+05	    1.543578E+05	    1.000000E+00	    4.548736E-06	    3.449999E+00	
   -2.625871E-02	    2.451990E-04	    5.123472E-03	   -1.000000E+00	    1.640000E-03	    1.640000E-03	    7.900000E+02	    4.786763E-12	    3.091389E-08	    5.101981E+06	    3.550372E+05	    9.999782E-01	    7.210697E-06	    1.699479E-06	
   -2.630592E-02	    3.861065E-04	    9.148771E-03	   -1.000000E+00	    1.640000E-03	    1.640000E-03	    7.900000E+02	    6.368338E-11	    1.659167E-07	    2.058217E+06	    4.560088E+05	    1.000000E+00	    1.135528E-05	    2.904018E-05	
   -2.637645E-02	    6.014270E-04	    1.490801E-02	   -1.000000E+00	    1.640000E-03	    1.640000E-03	    7.900000E+02	    7.436225E-10	    7.983112E-07	    8.480995E+05	    4.986816E+05	    1.000000E+00	    1.768981E-05	    3.708308E-04	
   -2.647826E-02	    9.233079E-04	    2.305565E-02	   -1.000000E+00	    1.640001E-03	    1.640000E-03	    7.900000E+02	    7.126228E-09	    3.244985E-06	    3.597328E+05	    5.056112E+05	    1.000000E+00	    2.716193E-05	    3.603101E-03	
   -2.661907E-02	    1.392773E-03	    3.446863E-02	   -1.000000E+00	    1.640011E-03	    1.640000E-03	    7.900000E+02	    5.961521E-08	    1.192431E-05	    1.580169E+05	    4.959725E+05	    1.000000E+00	    4.098286E-05	    2.956750E-02	
   -2.680366E-02	    2.059495E-03	    5.024252E-02	   -1.000000E+00	    1.640080E-03	    1.640000E-03	    7.900000E+02	    4.449705E-07	    4.067384E-05	    7.221228E+04	    4.807420E+05	    1.000000E+00	    6.062276E-05	    2.139160E-01	
   -2.702944E-02	    2.980099E-03	    7.152499E-02	   -1.000000E+00	    1.640532E-03	    1.640000E-03	    7.900000E+02	    2.955449E-06	    1.288340E-04	    3.443768E+04	    4.619887E+05	    1.000000E+00	    8.776417E-05	    1.365384E+00	
   -2.728053E-02	    4.214426E-03	    9.938600E-02	   -1.000000E+00	    1.643122E-03	    1.640000E-03	    7.900000E+02	    1.734311E-05	    3.767228E-04	    1.716018E+04	    4.341679E+05	    1.000000E+00	    1.241964E-04	    7.529823E+00	
   -2.752090E-02	    5.819032E-03	    1.347589E-01	   -1.000000E+00	    1.656183E-03	    1.640000E-03	    7.900000E+02	    8.990470E-05	    1.017559E-03	    8.941378E+03	    3.869447E+05	    1.000000E+00	    1.716291E-04	    3.478815E+01	
   -2.768855E-02	    7.837243E-03	    1.766351E-01	   -1.000000E+00	    1.708564E-03	    1.640000E-03	    7.900000E+02	    3.809129E-04	    2.370743E-03	    4.916838E+03	    3.182876E+05	    1.000000E+00	    2.314033E-04	    1.212399E+02	
   -2.769384E-02	    1.028571E-02	    2.232084E-01	   -1.000000E+00	    1.866688E-03	    1.640000E-03	    7.900000E+02	    1.259377E-03	    4.658404E-03	    2.922191E+03	    2.471285E+05	    1.000000E+00	    3.040934E-04	    3.112279E+02	
   -2.742556E-02	    1.313914E-02	    2.677272E-01	   -1.000000E+00	    2.193364E-03	    1.640000E-03	    7.900000E+02	    3.074242E-03	    7.449987E-03	    1.914453E+03	    1.841245E+05	    1.000000E+00	    3.890470E-04	    5.660431E+02	
   -2.676776E-02	    1.631789E-02	    3.088116E-01	   -1.000000E+00	    2.721231E-03	    1.640000E-03	    7.900000E+02	    6.006838E-03	    1.040104E-02	    1.367912E+03	    1.317645E+05	    1.000000E+00	    4.839931E-04	    7.914881E+02	
   -2.562621E-02	    1.968545E-02	    3.456876E-01	   -1.000000E+00	    3.394715E-03	    1.640000E-03	    7.900000E+02	    9.748415E-03	    1.287261E-02	    1.043181E+03	    9.368412E+04	    1.000000E+00	    5.849347E-04	    9.132717E+02	
   -2.395726E-02	    2.306237E-02	    3.786477E-01	   -1.000000E+00	    4.102867E-03	    1.640000E-03	    7.900000E+02	    1.368259E-02	    1.462774E-02	    8.350168E+02	    6.854808E+04	    1.000000E+00	    6.865274E-04	    9.379156E+02	
   -2.178720E-02	    2.625668E-02	    4.083240E-01	   -1.000000E+00	    4.643192E-03	    1.640000E-03	    7.900000E+02	    1.668440E-02	    1.575670E-02	    6.885389E+02	    5.349180E+04	    1.000000E+00	    7.829708E-04	    8.924784E+02	
   -1.921165E-02	    2.910169E-02	    4.328543E-01	   -1.000000E+00	    5.111565E-03	    1.640000E-03	    7.900000E+02	    1.928647E-02	    1.644988E-02	    5.926928E+02	    4.363124E+04	    1.000000E+00	    8.691517E-04	    8.414927E+02	
   -1.637401E-02	    3.148634E-02	    4.520833E-01	   -1.000000E+00	    5.490358E-03	    1.640000E-03	    7.900000E+02	    2.139088E-02	    1.684024E-02	    5.292732E+02	    3.717208E+04	    1.000000E+00	    9.415953E-04	    7.951435E+02	