Title="Fields"
Variables="X""Y""Velocity""Phi""Effective Viscosity""Dynamic Viscosity""Density""Eddy Viscosity""K""Omega""S""F1SST""distance""GEN"
Zone I=82 J=82 F=POINT
   -2.606803E-02	    1.200974E-04	    0.000000E+00	   -1.000000E+00	    1.640000E-03	    1.640000E-03	    7.900000E+02	    0.000000E+00	    0.000000E+00	    2.975851E+08	    0.000000E+00	    1.000000E+00	    0.000000E+00	    0.000000E+00	
   -2.607536E-02	    1.388091E-04	    0.000000E+00	   -1.000000E+00	    1.640000E-03	    1.640000E-03	    7.900000E+02	    0.000000E+00	    0.000000E+00	    2.975851E+08	    0.000000E+00	    1.000000E+00	    0.000000E+00	    0.000000E+00	
   -2.609352E-02	    1.853461E-04	    0.000000E+00	   -1.000000E+00	    1.640000E-03	    1.640000E-03	    7.900000E+02	    0.000000E+00	    0.000000E+00	    1.669107E+08	    0.000000E+00	    1.000000E+00	    0.000000E+00	    0.000000E+00	
   -2.611747E-02	    2.470952E-04	    0.000000E+00	   -1.000000E+00	    1.640000E-03	    1.640000E-03	    7.900000E+02	    0.000000E+00	    0.000000E+00	    9.391335E+07	    0.000000E+00	    1.000000E+00	    0.000000E+00	    0.000000E+00	
   -2.614879E-02	    3.285348E-04	    0.000000E+00	   -1.000000E+00	    1.640000E-03	    1.640000E-03	    7.900000E+02	    0.000000E+00	    0.000000E+00	    5.312514E+07	    0.000000E+00	    1.000000E+00	    0.000000E+00	    0.000000E+00	
   -2.618938E-02	    4.351926E-04	    0.000000E+00	   -1.000000E+00	    1.640000E-03	    1.640000E-03	    7.900000E+02	    0.000000E+00	    0.000000E+00	    3.027672E+07	    0.000000E+00	    1.000000E+00	    0.000000E+00	    0.000000E+00	
   -2.624138E-02	    5.737807E-04	    0.000000E+00	   -1.000000E+00	    1.640000E-03	    1.640000E-03	    7.900000E+02	    0.000000E+00	    0.000000E+00	    1.741773E+07	    0.000000E+00	    1.000000E+00	    0.000000E+00	    0.000000E+00	
   -2.630714E-02	    7.523094E-04	    0.000000E+00	   -1.000000E+00	    1.640000E-03	    1.640000E-03	    7.900000E+02	    0.000000E+00	    0.000000E+00	    1.013224E+07	    0.000000E+00	    1.000000E+00	    0.000000E+00	    0.000000E+00	
   -2.638907E-02	    9.801649E-04	    0.000000E+00	   -1.000000E+00	    1.640000E-03	    1.640000E-03	    7.900000E+02	    0.000000E+00	    0.000000E+00	    5.969240E+06	    0.000000E+00	    1.000000E+00	    0.000000E+00	    0.000000E+00	
   -2.648945E-02	    1.268138E-03	    0.000000E+00	   -1.000000E+00	    1.640000E-03	    1.640000E-03	    7.900000E+02	    0.000000E+00	    0.000000E+00	    3.566220E+06	    0.000000E+00	    1.000000E+00	    0.000000E+00	    0.000000E+00	
   -2.661011E-02	    1.628388E-03	    0.000000E+00	   -1.000000E+00	    1.640000E-03	    1.640000E-03	    7.900000E+02	    0.000000E+00	    0.000000E+00	    2.162995E+06	    0.000000E+00	    1.000000E+00	    0.000000E+00	    0.000000E+00	
   -2.675200E-02	    2.074320E-03	    0.000000E+00	   -1.000000E+00	    1.640000E-03	    1.640000E-03	    7.900000E+02	    0.000000E+00	    0.000000E+00	    1.333083E+06	    0.000000E+00	    1.000000E+00	    0.000000E+00	    0.000000E+00	
   -2.691465E-02	    2.620361E-03	    0.000000E+00	   -1.000000E+00	    1.640000E-03	    1.640000E-03	    7.900000E+02	    0.000000E+00	    0.000000E+00	    8.354726E+05	    0.000000E+00	    1.000000E+00	    0.000000E+00	    0.000000E+00	
   -2.709559E-02	    3.281607E-03	    0.000000E+00	   -1.000000E+00	    1.640000E-03	    1.640000E-03	    7.900000E+02	    0.000000E+00	    0.000000E+00	    5.327664E+05	    0.000000E+00	    1.000000E+00	    0.000000E+00	    0.000000E+00	
   -2.728959E-02	    4.073307E-03	    0.000000E+00	   -1.000000E+00	    1.640000E-03	    1.640000E-03	    7.900000E+02	    0.000000E+00	    0.000000E+00	    3.458456E+05	    0.000000E+00	    1.000000E+00	    0.000000E+00	    0.000000E+00	
   -2.748794E-02	    5.010158E-03	    0.000000E+00	   -1.000000E+00	    1.640000E-03	    1.640000E-03	    7.900000E+02	    0.000000E+00	    0.000000E+00	    2.286405E+05	    0.000000E+00	    1.000000E+00	    0.000000E+00	    0.000000E+00	
   -2.767785E-02	    6.105362E-03	    0.000000E+00	   -1.000000E+00	    1.640000E-03	    1.640000E-03	    7.900000E+02	    0.000000E+00	    0.000000E+00	    1.540026E+05	    0.000000E+00	    1.000000E+00	    0.000000E+00	    0.000000E+00	
   -2.784192E-02	    7.369438E-03	    0.000000E+00	   -1.000000E+00	    1.640000E-03	    1.640000E-03	    7.900000E+02	    0.000000E+00	    0.000000E+00	    1.057292E+05	    0.000000E+00	    1.000000E+00	    0.000000E+00	    0.000000E+00	
   -2.795807E-02	    8.808799E-03	    0.000000E+00	   -1.000000E+00	    1.640000E-03	    1.640000E-03	    7.900000E+02	    0.000000E+00	    0.000000E+00	    7.402303E+04	    0.000000E+00	    1.000000E+00	    0.000000E+00	    0.000000E+00	
   -2.799988E-02	    1.042416E-02	    0.000000E+00	   -1.000000E+00	    1.640000E-03	    1.640000E-03	    7.900000E+02	    0.000000E+00	    0.000000E+00	    5.287955E+04	    0.000000E+00	    1.000000E+00	    0.000000E+00	    0.000000E+00	
   -2.793760E-02	    1.220892E-02	    0.000000E+00	   -1.000000E+00	    1.640000E-03	    1.640000E-03	    7.900000E+02	    0.000000E+00	    0.000000E+00	    3.856854E+04	    0.000000E+00	    1.000000E+00	    0.000000E+00	    0.000000E+00	
   -2.773995E-02	    1.414780E-02	    0.000000E+00	   -1.000000E+00	    1.640000E-03	    1.640000E-03	    7.900000E+02	    0.000000E+00	    0.000000E+00	    2.874106E+04	    0.000000E+00	    1.000000E+00	    0.000000E+00	    0.000000E+00	
   -2.737661E-02	    1.621602E-02	    0.000000E+00	   -1.000000E+00	    1.640000E-03	    1.640000E-03	    7.900000E+02	    0.000000E+00	    0.000000E+00	    2.189802E+04	    0.000000E+00	    1.000000E+00	    0.000000E+00	    0.000000E+00	
   -2.682124E-02	    1.837929E-02	    0.000000E+00	   -1.000000E+00	    1.640000E-03	    1.640000E-03	    7.900000E+02	    0.000000E+00	    0.000000E+00	    1.706968E+04	    0.000000E+00	    1.000000E+00	    0.000000E+00	    0.000000E+00	
   -2.605463E-02	    2.059513E-02	    0.000000E+00	   -1.000000E+00	    1.640000E-03	    1.640000E-03	    7.900000E+02	    0.000000E+00	    0.000000E+00	    1.362009E+04	    0.000000E+00	    1.000000E+00	    0.000000E+00	    0.000000E+00	
   -2.506757E-02	    2.281520E-02	    0.000000E+00	   -1.000000E+00	    1.640000E-03	    1.640000E-03	    7.900000E+02	    0.000000E+00	    0.000000E+00	    1.112765E+04	    0.000000E+00	    1.000000E+00	    0.000000E+00	    0.000000E+00	
   -2.386267E-02	    2.498888E-02	    0.000000E+00	   -1.000000E+00	    1.640000E-03	    1.640000E-03	    7.900000E+02	    0.000000E+00	    0.000000E+00	    9.308111E+03	    0.000000E+00	    1.000000E+00	    0.000000E+00	    0.000000E+00	
   -2.245480E-02	    2.706724E-02	    0.000000E+00	   -1.000000E+00	    1.640000E-03	    1.640000E-03	    7.900000E+02	    0.000000E+00	    0.000000E+00	    7.967537E+03	    0.000000E+00	    1.000000E+00	    0.000000E+00	    0.000000E+00	
   -2.087007E-02	    2.900711E-02	    0.000000E+00	   -1.000000E+00	    1.640000E-03	    1.640000E-03	    7.900000E+02	    0.000000E+00	    0.000000E+00	    6.971912E+03	    0.000000E+00	    1.000000E+00	    0.000000E+00	    0.000000E+00	
   -1.914332E-02	    3.077419E-02	    0.000000E+00	   -1.000000E+00	    1.640000E-03	    1.640000E-03	    7.900000E+02	    0.000000E+00	    0.000000E+00	    6.227572E+03	    0.000000E+00	    1.000000E+00	    0.000000E+00	    0.000000E+00	
   -1.731474E-02	    3.234510E-02	    0.000000E+00	   -1.000000E+00	    1.640000E-03	    1.640000E-03	    7.900000E+02	    0.000000E+00	    0.000000E+00	    5.668367E+03	    0.000000E+00	    1.000000E+00	    0.000000E+00	    0.000000E+00	
   -1.542623E-02	    3.370788E-02	    0.000000E+00	   -1.000000E+00	    1.640000E-03	    1.640000E-03	    7.900000E+02	    0.000000E+00	    0.000000E+00	    5.247099E+03	    0.000000E+00	    1.000000E+00	    0.000000E+00	    0.000000E+00	
   -1.351807E-02	    3.486120E-02	    0.000000E+00	   -1.000000E+00	    1.640000E-03	    1.640000E-03	    7.900000E+02	    0.000000E+00	    0.000000E+00	    4.929740E+03	    0.000000E+00	    1.000000E+00	    0.000000E+00	    0.000000E+00	
   -1.162639E-02	    3.581264E-02	    0.000000E+00	   -1.000000E+00	    1.640000E-03	    1.640000E-03	    7.900000E+02	    0.000000E+00	    0.000000E+00	    4.691480E+03	    0.000000E+00	    1.000000E+00	    0.000000E+00	    0.000000E+00	
   -9.781440E-03	    3.657648E-02	    0.000000E+00	   -1.000000E+00	    1.640000E-03	    1.640000E-03	    7.900000E+02	    0.000000E+00	    0.000000E+00	    4.514046E+03	    0.000000E+00	    1.000000E+00	    0.000000E+00	    0.000000E+00	
   -8.006987E-03	    3.717129E-02	    0.000000E+00	   -1.000000E+00	    1.640000E-03	    1.640000E-03	    7.900000E+02	    0.000000E+00	    0.000000E+00	    4.382932E+03	    0.000000E+00	    1.000000E+00	    0.000000E+00	    0.000000E+00	
   -6.320285E-03	    3.761791E-02	    0.000000E+00	   -1.000000E+00	    1.640000E-03	    1.640000E-03	    7.900000E+02	    0.000000E+00	    0.000000E+00	    4.288629E+03	    0.000000E+00	    1.000000E+00	    0.000000E+00	    0.000000E+00	
   -4.732672E-03	    3.793769E-02	    0.000000E+00	   -1.000000E+00	    1.640000E-03	    1.640000E-03	    7.900000E+02	    0.000000E+00	    0.000000E+00	    4.223219E+03	    0.000000E+00	    1.000000E+00	    0.000000E+00	    0.000000E+00	
   -3.250425E-03	    3.815125E-02	    0.000000E+00	   -1.000000E+00	    1.640000E-03	    1.640000E-03	    7.900000E+02	    0.000000E+00	    0.000000E+00	    4.180481E+03	    0.000000E+00	    1.000000E+00	    0.000000E+00	    0.000000E+00	
   -1.875733E-03	    3.827766E-02	    0.000000E+00	   -1.000000E+00	    1.640000E-03	    1.640000E-03	    7.900000E+02	    0.000000E+00	    0.000000E+00	    4.155530E+03	    0.000000E+00	    1.000000E+00	    0.000000E+00	    0.000000E+00	
   -6.076528E-04	    3.833396E-02	    0.000000E+00	   -1.000000E+00	    1.640000E-03	    1.640000E-03	    7.900000E+02	    0.000000E+00	    0.000000E+00	    4.144495E+03	    0.000000E+00	    1.000000E+00	    0.000000E+00	    0.000000E+00	
    6.076528E-04	    3.833396E-02	    0.000000E+00	   -1.000000E+00	    1.640000E-03	    1.640000E-03	    7.900000E+02	    0.000000E+00	    0.000000E+00	    4.144495E+03	    0.000000E+00	    1.000000E+00	    0.000000E+00	    0.000000E+00	
    1.875733E-03	    3.827766E-02	    0.000000E+00	   -1.000000E+00	    1.640000E-03	    1.640000E-03	    7.900000E+02	    0.000000E+00	    0.000000E+00	    4.155530E+03	    0.000000E+00	    1.000000E+00	    0.000000E+00	    0.000000E+00	
    3.250425E-03	    3.815125E-02	    0.000000E+00	   -1.000000E+00	    1.640000E-03	    1.640000E-03	    7.900000E+02	    0.000000E+00	    0.000000E+00	    4.180481E+03	    0.000000E+00	    1.000000E+00	    0.000000E+00	    0.000000E+00	
    4.732672E-03	    3.793769E-02	    0.000000E+00	   -1.000000E+00	    1.640000E-03	    1.640000E-03	    7.900000E+02	    0.000000E+00	    0.000000E+00	    4.223219E+03	    0.000000E+00	    1.000000E+00	    0.000000E+00	    0.000000E+00	
    6.320285E-03	    3.761791E-02	    0.000000E+00	   -1.000000E+00	    1.640000E-03	    1.640000E-03	    7.900000E+02	    0.000000E+00	    0.000000E+00	    4.288629E+03	    0.000000E+00	    1.000000E+00	    0.000000E+00	    0.000000E+00	
    8.006987E-03	    3.717129E-02	    0.000000E+00	   -1.000000E+00	    1.640000E-03	    1.640000E-03	    7.900000E+02	    0.000000E+00	    0.000000E+00	    4.382932E+03	    0.000000E+00	    1.000000E+00	    0.000000E+00	    0.000000E+00	
    9.781440E-03	    3.657648E-02	    0.000000E+00	   -1.000000E+00	    1.640000E-03	    1.640000E-03	    7.900000E+02	    0.000000E+00	    0.000000E+00	    4.514046E+03	    0.000000E+00	    1.000000E+00	    0.000000E+00	    0.000000E+00	
    1.162639E-02	    3.581264E-02	    0.000000E+00	   -1.000000E+00	    1.640000E-03	    1.640000E-03	    7.900000E+02	    0.000000E+00	    0.000000E+00	    4.691480E+03	    0.000000E+00	    1.000000E+00	    0.000000E+00	    0.000000E+00	
    1.351807E-02	    3.486120E-02	    0.000000E+00	   -1.000000E+00	    1.640000E-03	    1.640000E-03	    7.900000E+02	    0.000000E+00	    0.000000E+00	    4.929740E+03	    0.000000E+00	    1.000000E+00	    0.000000E+00	    0.000000E+00	
    1.542623E-02	    3.370788E-02	    0.000000E+00	   -1.000000E+00	    1.640000E-03	    1.640000E-03	    7.900000E+02	    0.000000E+00	    0.000000E+00	    5.247099E+03	    0.000000E+00	    1.000000E+00	    0.000000E+00	    0.000000E+00	
    1.731474E-02	    3.234510E-02	    0.000000E+00	   -1.000000E+00	    1.640000E-03	    1.640000E-03	    7.900000E+02	    0.000000E+00	    0.000000E+00	    5.668367E+03	    0.000000E+00	    1.000000E+00	    0.000000E+00	    0.000000E+00	
    1.914332E-02	    3.077419E-02	    0.000000E+00	   -1.000000E+00	    1.640000E-03	    1.640000E-03	    7.900000E+02	    0.000000E+00	    0.000000E+00	    6.227572E+03	    0.000000E+00	    1.000000E+00	    0.000000E+00	    0.000000E+00	
    2.087007E-02	    2.900711E-02	    0.000000E+00	   -1.000000E+00	    1.640000E-03	    1.640000E-03	    7.900000E+02	    0.000000E+00	    0.000000E+00	    6.971912E+03	    0.000000E+00	    1.000000E+00	    0.000000E+00	    0.000000E+00	
    2.245480E-02	    2.706724E-02	    0.000000E+00	   -1.000000E+00	    1.640000E-03	    1.640000E-03	    7.900000E+02	    0.000000E+00	    0.000000E+00	    7.967537E+03	    0.000000E+00	    1.000000E+00	    0.000000E+00	    0.000000E+00	
    2.386267E-02	    2.498888E-02	    0.000000E+00	   -1.000000E+00	    1.640000E-03	    1.640000E-03	    7.900000E+02	    0.000000E+00	    0.000000E+00	    9.308111E+03	    0.000000E+00	    1.000000E+00	    0.000000E+00	    0.000000E+00	
    2.506757E-02	    2.281520E-02	    0.000000E+00	   -1.000000E+00	    1.640000E-03	    1.640000E-03	    7.900000E+02	    0.000000E+00	    0.000000E+00	    1.112765E+04	    0.000000E+00	    1.000000E+00	    0.000000E+00	    0.000000E+00	
    2.605463E-02	    2.059513E-02	    0.000000E+00	   -1.000000E+00	    1.640000E-03	    1.640000E-03	    7.900000E+02	    0.000000E+00	    0.000000E+00	    1.362009E+04	    0.000000E+00	    1.000000E+00	    0.000000E+00	    0.000000E+00	
    2.682124E-02	    1.837929E-02	    0.000000E+00	   -1.000000E+00	    1.640000E-03	    1.640000E-03	    7.900000E+02	    0.000000E+00	    0.000000E+00	    1.706968E+04	    0.000000E+00	    1.000000E+00	    0.000000E+00	    0.000000E+00	
    2.737661E-02	    1.621602E-02	    0.000000E+00	   -1.000000E+00	    1.640000E-03	    1.640000E-03	    7.900000E+02	    0.000000E+00	    0.000000E+00	    2.189802E+04	    0.000000E+00	    1.000000E+00	    0.000000E+00	    0.000000E+00	
    2.773995E-02	    1.414780E-02	    0.000000E+00	   -1.000000E+00	    1.640000E-03	    1.640000E-03	    7.900000E+02	    0.000000E+00	    0.000000E+00	    2.874106E+04	    0.000000E+00	    1.000000E+00	    0.000000E+00	    0.000000E+00	
    2.793760E-02	    1.220892E-02	    0.000000E+00	   -1.000000E+00	    1.640000E-03	    1.640000E-03	    7.900000E+02	    0.000000E+00	    0.000000E+00	    3.856854E+04	    0.000000E+00	    1.000000E+00	    0.000000E+00	    0.000000E+00	
    2.799988E-02	    1.042416E-02	    0.000000E+00	   -1.000000E+00	    1.640000E-03	    1.640000E-03	    7.900000E+02	    0.000000E+00	    0.000000E+00	    5.287955E+04	    0.000000E+00	    1.000000E+00	    0.000000E+00	    0.000000E+00	
    2.795807E-02	    8.808799E-03	    0.000000E+00	   -1.000000E+00	    1.640000E-03	    1.640000E-03	    7.900000E+02	    0.000000E+00	    0.000000E+00	    7.402303E+04	    0.000000E+00	    1.000000E+00	    0.000000E+00	    0.000000E+00	
    2.784192E-02	    7.369438E-03	    0.000000E+00	   -1.000000E+00	    1.640000E-03	    1.640000E-03	    7.900000E+02	    0.000000E+00	    0.000000E+00	    1.057292E+05	    0.000000E+00	    1.000000E+00	    0.000000E+00	    0.000000E+00	
    2.767785E-02	    6.105362E-03	    0.000000E+00	   -1.000000E+00	    1.640000E-03	    1.640000E-03	    7.900000E+02	    0.000000E+00	    0.000000E+00	    1.540026E+05	    0.000000E+00	    1.000000E+00	    0.000000E+00	    0.000000E+00	
    2.748794E-02	    5.010158E-03	    0.000000E+00	   -1.000000E+00	    1.640000E-03	    1.640000E-03	    7.900000E+02	    0.000000E+00	    0.000000E+00	    2.286405E+05	    0.000000E+00	    1.000000E+00	    0.000000E+00	    0.000000E+00	
    2.728959E-02	    4.073307E-03	    0.000000E+00	   -1.000000E+00	    1.640000E-03	    1.640000E-03	    7.900000E+02	    0.000000E+00	    0.000000E+00	    3.458456E+05	    0.000000E+00	    1.000000E+00	    0.000000E+00	    0.000000E+00	
    2.709559E-02	    3.281607E-03	    0.000000E+00	   -1.000000E+00	    1.640000E-03	    1.640000E-03	    7.900000E+02	    0.000000E+00	    0.000000E+00	    5.327664E+05	    0.000000E+00	    1.000000E+00	    0.000000E+00	    0.000000E+00	
    2.691465E-02	    2.620361E-03	    0.000000E+00	   -1.000000E+00	    1.640000E-03	    1.640000E-03	    7.900000E+02	    0.000000E+00	    0.000000E+00	    8.354726E+05	    0.000000E+00	    1.000000E+00	    0.000000E+00	    0.000000E+00	
    2.675200E-02	    2.074320E-03	    0.000000E+00	   -1.000000E+00	    1.640000E-03	    1.640000E-03	    7.900000E+02	    0.000000E+00	    0.000000E+00	    1.333083E+06	    0.000000E+00	    1.000000E+00	    0.000000E+00	    0.000000E+00	
    2.661011E-02	    1.628388E-03	    0.000000E+00	   -1.000000E+00	    1.640000E-03	    1.640000E-03	    7.900000E+02	    0.000000E+00	    0.000000E+00	    2.162995E+06	    0.000000E+00	    1.000000E+00	    0.000000E+00	    0.000000E+00	
    2.648945E-02	    1.268138E-03	    0.000000E+00	   -1.000000E+00	    1.640000E-03	    1.640000E-03	    7.900000E+02	    0.000000E+00	    0.000000E+00	    3.566220E+06	    0.000000E+00	    1.000000E+00	    0.000000E+00	    0.000000E+00	
    2.638907E-02	    9.801649E-04	    0.000000E+00	   -1.000000E+00	    1.640000E-03	    1.640000E-03	    7.900000E+02	    0.000000E+00	    0.000000E+00	    5.969240E+06	    0.000000E+00	    1.000000E+00	    0.000000E+00	    0.000000E+00	
    2.630714E-02	    7.523094E-04	    0.000000E+00	   -1.000000E+00	    1.640000E-03	    1.640000E-03	    7.900000E+02	    0.000000E+00	    0.000000E+00	    1.013224E+07	    0.000000E+00	    1.000000E+00	    0.000000E+00	    0.000000E+00	
    2.624138E-02	    5.737807E-04	    0.000000E+00	   -1.000000E+00	    1.640000E-03	    1.640000E-03	    7.900000E+02	    0.000000E+00	    0.000000E+00	    1.741773E+07	    0.000000E+00	    1.000000E+00	    0.000000E+00	    0.000000E+00	
    2.618938E-02	    4.351926E-04	    0.000000E+00	   -1.000000E+00	    1.640000E-03	    1.640000E-03	    7.900000E+02	    0.000000E+00	    0.000000E+00	    3.027672E+07	    0.000000E+00	    1.000000E+00	    0.000000E+00	    0.000000E+00	
    2.614879E-02	    3.285348E-04	    0.000000E+00	   -1.000000E+00	    1.640000E-03	    1.640000E-03	    7.900000E+02	    0.000000E+00	    0.000000E+00	    5.312514E+07	    0.000000E+00	    1.000000E+00	    0.000000E+00	    0.000000E+00	
    2.611747E-02	    2.470952E-04	    0.000000E+00	   -1.000000E+00	    1.640000E-03	    1.640000E-03	    7.900000E+02	    0.000000E+00	    0.000000E+00	    9.391335E+07	    0.000000E+00	    1.000000E+00	    0.000000E+00	    0.000000E+00	
    2.609352E-02	    1.853461E-04	    0.000000E+00	   -1.000000E+00	    1.640000E-03	    1.640000E-03	    7.900000E+02	    0.000000E+00	    0.000000E+00	    1.669107E+08	    0.000000E+00	    1.000000E+00	    0.000000E+00	    0.000000E+00	
    2.607536E-02	    1.388091E-04	    0.000000E+00	   -1.000000E+00	    1.640000E-03	    1.640000E-03	    7.900000E+02	    0.000000E+00	    0.000000E+00	    2.975851E+08	    0.000000E+00	    1.000000E+00	    0.000000E+00	    0.000000E+00	
    2.606803E-02	    1.200974E-04	    0.000000E+00	   -1.000000E+00	    1.640000E-03	    1.640000E-03	    7.900000E+02	    0.000000E+00	    0.000000E+00	    0.000000E+00	    0.000000E+00	    1.000000E+00	    0.000000E+00	    0.000000E+00	
   -2.606743E-02	    1.203318E-04	    0.000000E+00	   -1.000000E+00	    1.640000E-03	    1.640000E-03	    7.900000E+02	    0.000000E+00	    0.000000E+00	    0.000000E+00	    0.000000E+00	    1.000000E+00	    0.000000E+00	    0.000000E+00	
   -2.607466E-02	    1.390795E-04	    1.396108E-04	   -1.000000E+00	    1.640000E-03	    1.640000E-03	    7.900000E+02	    7.353097E-15	    2.769838E-09	    2.975851E+08	    3.495452E+04	    1.000000E+00	    7.470468E-07	    2.884504E+01	
   -2.609259E-02	    1.857055E-04	    4.283426E-04	   -1.000000E+00	    1.640000E-03	    1.640000E-03	    7.900000E+02	    2.848673E-14	    6.018659E-09	    1.669107E+08	    1.843831E+05	    1.000000E+00	    9.974963E-07	    7.317105E+01	
   -2.611622E-02	    2.475715E-04	    7.503517E-04	   -1.000000E+00	    1.640000E-03	    1.640000E-03	    7.900000E+02	    1.562823E-13	    1.857848E-08	    9.391335E+07	    3.183296E+05	    1.000000E+00	    1.329810E-06	    1.267101E+02	
   -2.614714E-02	    3.291629E-04	    1.130873E-03	   -1.000000E+00	    1.640000E-03	    1.640000E-03	    7.900000E+02	    6.338601E-13	    4.262520E-08	    5.312514E+07	    4.090038E+05	    1.000000E+00	    1.768086E-06	    1.636293E+02	
   -2.618719E-02	    4.360156E-04	    1.596261E-03	   -1.000000E+00	    1.640000E-03	    1.640000E-03	    7.900000E+02	    2.246963E-12	    8.611477E-08	    3.027672E+07	    4.644010E+05	    1.000000E+00	    2.342065E-06	    1.870964E+02	
   -2.623848E-02	    5.748505E-04	    2.171413E-03	   -1.000000E+00	    1.640000E-03	    1.640000E-03	    7.900000E+02	    7.357488E-12	    1.622161E-07	    1.741773E+07	    4.943363E+05	    1.000000E+00	    3.087860E-06	    2.009531E+02	
   -2.630333E-02	    7.536861E-04	    2.883487E-03	   -1.000000E+00	    1.640000E-03	    1.640000E-03	    7.900000E+02	    2.281590E-11	    2.926279E-07	    1.013224E+07	    5.070445E+05	    1.000000E+00	    4.048561E-06	    2.084948E+02	
   -2.638409E-02	    9.819156E-04	    3.767922E-03	   -1.000000E+00	    1.640000E-03	    1.640000E-03	    7.900000E+02	    6.809845E-11	    5.145519E-07	    5.969240E+06	    5.100035E+05	    1.000000E+00	    5.274653E-06	    2.128381E+02	
   -2.648299E-02	    1.270333E-03	    4.866613E-03	   -1.000000E+00	    1.640000E-03	    1.640000E-03	    7.900000E+02	    1.974073E-10	    8.911364E-07	    3.566220E+06	    5.082090E+05	    1.000000E+00	    6.824162E-06	    2.161329E+02	
   -2.660178E-02	    1.631094E-03	    6.227087E-03	   -1.000000E+00	    1.640000E-03	    1.640000E-03	    7.900000E+02	    5.584414E-10	    1.528995E-06	    2.162995E+06	    5.045661E+05	    1.000000E+00	    8.762452E-06	    2.197138E+02	
   -2.674132E-02	    2.077588E-03	    7.898902E-03	   -1.000000E+00	    1.640000E-03	    1.640000E-03	    7.900000E+02	    1.543484E-09	    2.604546E-06	    1.333083E+06	    5.002343E+05	    1.000000E+00	    1.116156E-05	    2.241836E+02	
   -2.690109E-02	    2.624213E-03	    9.932384E-03	   -1.000000E+00	    1.640001E-03	    1.640000E-03	    7.900000E+02	    4.165786E-09	    4.405570E-06	    8.354726E+05	    4.955474E+05	    1.000000E+00	    1.409897E-05	    2.297738E+02	
   -2.707850E-02	    3.286013E-03	    1.237814E-02	   -1.000000E+00	    1.640002E-03	    1.640000E-03	    7.900000E+02	    1.096553E-08	    7.395022E-06	    5.327664E+05	    4.905949E+05	    1.000000E+00	    1.765571E-05	    2.365785E+02	
   -2.726822E-02	    4.078156E-03	    1.528587E-02	   -1.000000E+00	    1.640004E-03	    1.640000E-03	    7.900000E+02	    2.810708E-08	    1.230470E-05	    3.458456E+05	    4.854254E+05	    1.000000E+00	    2.191355E-05	    2.446362E+02	
   -2.746147E-02	    5.015219E-03	    1.870347E-02	   -1.000000E+00	    1.640011E-03	    1.640000E-03	    7.900000E+02	    7.003643E-08	    2.026983E-05	    2.286405E+05	    4.801463E+05	    1.000000E+00	    2.695119E-05	    2.539873E+02	
   -2.764537E-02	    6.110243E-03	    2.268019E-02	   -1.000000E+00	    1.640025E-03	    1.640000E-03	    7.900000E+02	    1.694607E-07	    3.303465E-05	    1.540026E+05	    4.751100E+05	    1.000000E+00	    3.283917E-05	    2.648304E+02	
   -2.780250E-02	    7.373538E-03	    2.724129E-02	   -1.000000E+00	    1.640060E-03	    1.640000E-03	    7.900000E+02	    3.968408E-07	    5.311098E-05	    1.057292E+05	    4.698757E+05	    1.000000E+00	    3.963349E-05	    2.768954E+02	
   -2.791077E-02	    8.811263E-03	    3.238955E-02	   -1.000000E+00	    1.640134E-03	    1.640000E-03	    7.900000E+02	    8.954550E-07	    8.390417E-05	    7.402303E+04	    4.638531E+05	    1.000000E+00	    4.736795E-05	    2.896997E+02	
   -2.794383E-02	    1.042384E-02	    3.817093E-02	   -1.000000E+00	    1.640293E-03	    1.640000E-03	    7.900000E+02	    1.950834E-06	    1.305813E-04	    5.287955E+04	    4.579871E+05	    1.000000E+00	    5.604560E-05	    3.042362E+02	
   -2.787212E-02	    1.220436E-02	    4.452509E-02	   -1.000000E+00	    1.640609E-03	    1.640000E-03	    7.900000E+02	    4.059651E-06	    1.981960E-04	    3.856854E+04	    4.505076E+05	    1.000000E+00	    6.563015E-05	    3.188351E+02	
   -2.766465E-02	    1.413726E-02	    5.138164E-02	   -1.000000E+00	    1.641210E-03	    1.640000E-03	    7.900000E+02	    8.067607E-06	    2.935083E-04	    2.874106E+04	    4.403996E+05	    1.000000E+00	    7.603865E-05	    3.335569E+02	
   -2.729147E-02	    1.619751E-02	    5.875805E-02	   -1.000000E+00	    1.642307E-03	    1.640000E-03	    7.900000E+02	    1.538159E-05	    4.263624E-04	    2.189802E+04	    4.287211E+05	    1.000000E+00	    8.713715E-05	    3.500828E+02	
   -2.672673E-02	    1.835070E-02	    6.650758E-02	   -1.000000E+00	    1.644180E-03	    1.640000E-03	    7.900000E+02	    2.786987E-05	    6.021897E-04	    1.706968E+04	    4.147930E+05	    1.000000E+00	    9.874110E-05	    3.667435E+02	
   -2.595180E-02	    2.055436E-02	    7.432908E-02	   -1.000000E+00	    1.647112E-03	    1.640000E-03	    7.900000E+02	    4.741372E-05	    8.174418E-04	    1.362009E+04	    3.978818E+05	    1.000000E+00	    1.106220E-04	    3.804739E+02	
   -2.495802E-02	    2.276035E-02	    8.227544E-02	   -1.000000E+00	    1.651492E-03	    1.640000E-03	    7.900000E+02	    7.661217E-05	    1.079130E-03	    1.112765E+04	    3.812544E+05	    1.000000E+00	    1.225205E-04	    3.944664E+02	
   -2.374849E-02	    2.491843E-02	    9.015130E-02	   -1.000000E+00	    1.657535E-03	    1.640000E-03	    7.900000E+02	    1.169010E-04	    1.377377E-03	    9.308111E+03	    3.655180E+05	    1.000000E+00	    1.341655E-04	    4.072277E+02	
   -2.233847E-02	    2.698020E-02	    9.776618E-02	   -1.000000E+00	    1.665234E-03	    1.640000E-03	    7.900000E+02	    1.682248E-04	    1.696630E-03	    7.967537E+03	    3.512486E+05	    1.000000E+00	    1.452954E-04	    4.179259E+02	
   -2.075424E-02	    2.890309E-02	    1.049379E-01	   -1.000000E+00	    1.674318E-03	    1.640000E-03	    7.900000E+02	    2.287856E-04	    2.019079E-03	    6.971912E+03	    3.387363E+05	    1.000000E+00	    1.556795E-04	    4.262523E+02	
   -1.903064E-02	    3.065347E-02	    1.115126E-01	   -1.000000E+00	    1.684304E-03	    1.640000E-03	    7.900000E+02	    2.953578E-04	    2.328306E-03	    6.227572E+03	    3.280413E+05	    1.000000E+00	    1.651355E-04	    4.322986E+02	
   -1.720765E-02	    3.220854E-02	    1.173814E-01	   -1.000000E+00	    1.694602E-03	    1.640000E-03	    7.900000E+02	    3.640122E-04	    2.611841E-03	    5.668367E+03	    3.190925E+05	    1.000000E+00	    1.735390E-04	    4.364146E+02	
   -1.532682E-02	    3.355682E-02	    1.224854E-01	   -1.000000E+00	    1.704634E-03	    1.640000E-03	    7.900000E+02	    4.308928E-04	    2.861946E-03	    5.247099E+03	    3.117460E+05	    1.000000E+00	    1.808270E-04	    4.390451E+02	
   -1.342801E-02	    3.469732E-02	    1.268122E-01	   -1.000000E+00	    1.713921E-03	    1.640000E-03	    7.900000E+02	    4.928063E-04	    3.075199E-03	    4.929740E+03	    3.058265E+05	    1.000000E+00	    1.869934E-04	    4.406213E+02	
   -1.154682E-02	    3.563782E-02	    1.303901E-01	   -1.000000E+00	    1.722132E-03	    1.640000E-03	    7.900000E+02	    5.475450E-04	    3.251641E-03	    4.691480E+03	    3.011633E+05	    1.000000E+00	    1.920795E-04	    4.415244E+02	
   -9.713086E-03	    3.639261E-02	    1.332876E-01	   -1.000000E+00	    1.729102E-03	    1.640000E-03	    7.900000E+02	    5.940160E-04	    3.394197E-03	    4.514046E+03	    2.976400E+05	    1.000000E+00	    1.961619E-04	    4.421294E+02	
   -7.950129E-03	    3.698023E-02	    1.354285E-01	   -1.000000E+00	    1.734414E-03	    1.640000E-03	    7.900000E+02	    6.294264E-04	    3.492067E-03	    4.382932E+03	    2.950344E+05	    1.000000E+00	    1.993406E-04	    4.412457E+02	
   -6.274869E-03	    3.742136E-02	    1.370375E-01	   -1.000000E+00	    1.738490E-03	    1.640000E-03	    7.900000E+02	    6.565994E-04	    3.564445E-03	    4.288629E+03	    2.931876E+05	    1.000000E+00	    2.017272E-04	    4.404811E+02	
   -4.698378E-03	    3.773717E-02	    1.381943E-01	   -1.000000E+00	    1.741470E-03	    1.640000E-03	    7.900000E+02	    6.764645E-04	    3.616276E-03	    4.223219E+03	    2.919049E+05	    1.000000E+00	    2.034358E-04	    4.399333E+02	
   -3.226740E-03	    3.794805E-02	    1.389675E-01	   -1.000000E+00	    1.743486E-03	    1.640000E-03	    7.900000E+02	    6.899084E-04	    3.650821E-03	    4.180481E+03	    2.910599E+05	    1.000000E+00	    2.045768E-04	    4.395581E+02	
   -1.862020E-03	    3.807287E-02	    1.394247E-01	   -1.000000E+00	    1.744689E-03	    1.640000E-03	    7.900000E+02	    6.979274E-04	    3.671213E-03	    4.155530E+03	    2.905615E+05	    1.000000E+00	    2.052521E-04	    4.393288E+02	
   -6.032039E-04	    3.812846E-02	    1.396272E-01	   -1.000000E+00	    1.745226E-03	    1.640000E-03	    7.900000E+02	    7.015064E-04	    3.680240E-03	    4.144495E+03	    2.903363E+05	    1.000000E+00	    2.055529E-04	    4.392193E+02	
    6.032039E-04	    3.812846E-02	    1.396272E-01	   -1.000000E+00	    1.745226E-03	    1.640000E-03	    7.900000E+02	    7.015064E-04	    3.680240E-03	    4.144495E+03	    2.903363E+05	    1.000000E+00	    2.055529E-04	    4.392193E+02	