Title="Fields"
Variables="X""Y""Velocity""Phi""Effective Viscosity""Dynamic Viscosity""Density""Eddy Viscosity""K""Omega""S"
Zone I=52 J=52 F=POINT
   -1.214864E-02	    6.022430E-05	    0.000000E+00	    0.000000E+00	    1.000000E-03	    1.000000E-03	    1.000000E+03	    0.000000E+00	    0.000000E+00	    0.000000E+00	    0.000000E+00	
   -1.214840E-02	    7.587059E-05	    0.000000E+00	    0.000000E+00	    1.000000E-03	    1.000000E-03	    1.000000E+03	    0.000000E+00	    0.000000E+00	    0.000000E+00	    0.000000E+00	
   -1.214760E-02	    1.201162E-04	    0.000000E+00	    0.000000E+00	    1.000000E-03	    1.000000E-03	    1.000000E+03	    0.000000E+00	    0.000000E+00	    0.000000E+00	    0.000000E+00	
   -1.214604E-02	    1.887791E-04	    0.000000E+00	    0.000000E+00	    1.000000E-03	    1.000000E-03	    1.000000E+03	    0.000000E+00	    0.000000E+00	    0.000000E+00	    0.000000E+00	
   -1.214292E-02	    2.931943E-04	    0.000000E+00	    0.000000E+00	    1.000000E-03	    1.000000E-03	    1.000000E+03	    0.000000E+00	    0.000000E+00	    0.000000E+00	    0.000000E+00	
   -1.213664E-02	    4.481479E-04	    0.000000E+00	    0.000000E+00	    1.000000E-03	    1.000000E-03	    1.000000E+03	    0.000000E+00	    0.000000E+00	    0.000000E+00	    0.000000E+00	
   -1.212408E-02	    6.717413E-04	    0.000000E+00	    0.000000E+00	    1.000000E-03	    1.000000E-03	    1.000000E+03	    0.000000E+00	    0.000000E+00	    0.000000E+00	    0.000000E+00	
   -1.209956E-02	    9.844691E-04	    0.000000E+00	    0.000000E+00	    1.000000E-03	    1.000000E-03	    1.000000E+03	    0.000000E+00	    0.000000E+00	    0.000000E+00	    0.000000E+00	
   -1.205344E-02	    1.407248E-03	    0.000000E+00	    0.000000E+00	    1.000000E-03	    1.000000E-03	    1.000000E+03	    0.000000E+00	    0.000000E+00	    0.000000E+00	    0.000000E+00	
   -1.197068E-02	    1.958259E-03	    0.000000E+00	    0.000000E+00	    1.000000E-03	    1.000000E-03	    1.000000E+03	    0.000000E+00	    0.000000E+00	    0.000000E+00	    0.000000E+00	
   -1.182998E-02	    2.648730E-03	    0.000000E+00	    0.000000E+00	    1.000000E-03	    1.000000E-03	    1.000000E+03	    0.000000E+00	    0.000000E+00	    0.000000E+00	    0.000000E+00	
   -1.160451E-02	    3.478208E-03	    0.000000E+00	    0.000000E+00	    1.000000E-03	    1.000000E-03	    1.000000E+03	    0.000000E+00	    0.000000E+00	    0.000000E+00	    0.000000E+00	
   -1.126508E-02	    4.430482E-03	    0.000000E+00	    0.000000E+00	    1.000000E-03	    1.000000E-03	    1.000000E+03	    0.000000E+00	    0.000000E+00	    0.000000E+00	    0.000000E+00	
   -1.078595E-02	    5.471869E-03	    0.000000E+00	    0.000000E+00	    1.000000E-03	    1.000000E-03	    1.000000E+03	    0.000000E+00	    0.000000E+00	    0.000000E+00	    0.000000E+00	
   -1.015216E-02	    6.553542E-03	    0.000000E+00	    0.000000E+00	    1.000000E-03	    1.000000E-03	    1.000000E+03	    0.000000E+00	    0.000000E+00	    0.000000E+00	    0.000000E+00	
   -9.365676E-03	    7.618437E-03	    0.000000E+00	    0.000000E+00	    1.000000E-03	    1.000000E-03	    1.000000E+03	    0.000000E+00	    0.000000E+00	    0.000000E+00	    0.000000E+00	
   -8.447592E-03	    8.611236E-03	    0.000000E+00	    0.000000E+00	    1.000000E-03	    1.000000E-03	    1.000000E+03	    0.000000E+00	    0.000000E+00	    0.000000E+00	    0.000000E+00	
   -7.434908E-03	    9.488112E-03	    0.000000E+00	    0.000000E+00	    1.000000E-03	    1.000000E-03	    1.000000E+03	    0.000000E+00	    0.000000E+00	    0.000000E+00	    0.000000E+00	
   -6.373132E-03	    1.022286E-02	    0.000000E+00	    0.000000E+00	    1.000000E-03	    1.000000E-03	    1.000000E+03	    0.000000E+00	    0.000000E+00	    0.000000E+00	    0.000000E+00	
   -5.307702E-03	    1.080785E-02	    0.000000E+00	    0.000000E+00	    1.000000E-03	    1.000000E-03	    1.000000E+03	    0.000000E+00	    0.000000E+00	    0.000000E+00	    0.000000E+00	
   -4.277189E-03	    1.125075E-02	    0.000000E+00	    0.000000E+00	    1.000000E-03	    1.000000E-03	    1.000000E+03	    0.000000E+00	    0.000000E+00	    0.000000E+00	    0.000000E+00	
   -3.309761E-03	    1.156901E-02	    0.000000E+00	    0.000000E+00	    1.000000E-03	    1.000000E-03	    1.000000E+03	    0.000000E+00	    0.000000E+00	    0.000000E+00	    0.000000E+00	
   -2.422724E-03	    1.178450E-02	    0.000000E+00	    0.000000E+00	    1.000000E-03	    1.000000E-03	    1.000000E+03	    0.000000E+00	    0.000000E+00	    0.000000E+00	    0.000000E+00	
   -1.624046E-03	    1.191947E-02	    0.000000E+00	    0.000000E+00	    1.000000E-03	    1.000000E-03	    1.000000E+03	    0.000000E+00	    0.000000E+00	    0.000000E+00	    0.000000E+00	
   -9.147101E-04	    1.199402E-02	    0.000000E+00	    0.000000E+00	    1.000000E-03	    1.000000E-03	    1.000000E+03	    0.000000E+00	    0.000000E+00	    0.000000E+00	    0.000000E+00	
   -2.910617E-04	    1.202501E-02	    0.000000E+00	    0.000000E+00	    1.000000E-03	    1.000000E-03	    1.000000E+03	    0.000000E+00	    0.000000E+00	    0.000000E+00	    0.000000E+00	
    2.910617E-04	    1.202501E-02	    0.000000E+00	    0.000000E+00	    1.000000E-03	    1.000000E-03	    1.000000E+03	    0.000000E+00	    0.000000E+00	    0.000000E+00	    0.000000E+00	
    9.147101E-04	    1.199402E-02	    0.000000E+00	    0.000000E+00	    1.000000E-03	    1.000000E-03	    1.000000E+03	    0.000000E+00	    0.000000E+00	    0.000000E+00	    0.000000E+00	
    1.624046E-03	    1.191947E-02	    0.000000E+00	    0.000000E+00	    1.000000E-03	    1.000000E-03	    1.000000E+03	    0.000000E+00	    0.000000E+00	    0.000000E+00	    0.000000E+00	
    2.422724E-03	    1.178450E-02	    0.000000E+00	    0.000000E+00	    1.000000E-03	    1.000000E-03	    1.000000E+03	    0.000000E+00	    0.000000E+00	    0.000000E+00	    0.000000E+00	
    3.309761E-03	    1.156901E-02	    0.000000E+00	    0.000000E+00	    1.000000E-03	    1.000000E-03	    1.000000E+03	    0.000000E+00	    0.000000E+00	    0.000000E+00	    0.000000E+00	
    4.277189E-03	    1.125075E-02	    0.000000E+00	    0.000000E+00	    1.000000E-03	    1.000000E-03	    1.000000E+03	    0.000000E+00	    0.000000E+00	    0.000000E+00	    0.000000E+00	
    5.307702E-03	    1.080785E-02	    0.000000E+00	    0.000000E+00	    1.000000E-03	    1.000000E-03	    1.000000E+03	    0.000000E+00	    0.000000E+00	    0.000000E+00	    0.000000E+00	
    6.373132E-03	    1.022286E-02	    0.000000E+00	    0.000000E+00	    1.000000E-03	    1.000000E-03	    1.000000E+03	    0.000000E+00	    0.000000E+00	    0.000000E+00	    0.000000E+00	
    7.434908E-03	    9.488112E-03	    0.000000E+00	    0.000000E+00	    1.000000E-03	    1.000000E-03	    1.000000E+03	    0.000000E+00	    0.000000E+00	    0.000000E+00	    0.000000E+00	
    8.447592E-03	    8.611236E-03	    0.000000E+00	    0.000000E+00	    1.000000E-03	    1.000000E-03	    1.000000E+03	    0.000000E+00	    0.000000E+00	    0.000000E+00	    0.000000E+00	
    9.365676E-03	    7.618437E-03	    0.000000E+00	    0.000000E+00	    1.000000E-03	    1.000000E-03	    1.000000E+03	    0.000000E+00	    0.000000E+00	    0.000000E+00	    0.000000E+00	
    1.015216E-02	    6.553542E-03	    0.000000E+00	    0.000000E+00	    1.000000E-03	    1.000000E-03	    1.000000E+03	    0.000000E+00	    0.000000E+00	    0.000000E+00	    0.000000E+00	
    1.078595E-02	    5.471869E-03	    0.000000E+00	    0.000000E+00	    1.000000E-03	    1.000000E-03	    1.000000E+03	    0.000000E+00	    0.000000E+00	    0.000000E+00	    0.000000E+00	
    1.126508E-02	    4.430482E-03	    0.000000E+00	    0.000000E+00	    1.000000E-03	    1.000000E-03	    1.000000E+03	    0.000000E+00	    0.000000E+00	    0.000000E+00	    0.000000E+00	
    1.160451E-02	    3.478208E-03	    0.000000E+00	    0.000000E+00	    1.000000E-03	    1.000000E-03	    1.000000E+03	    0.000000E+00	    0.000000E+00	    0.000000E+00	    0.000000E+00	
    1.182998E-02	    2.648730E-03	    0.000000E+00	    0.000000E+00	    1.000000E-03	    1.000000E-03	    1.000000E+03	    0.000000E+00	    0.000000E+00	    0.000000E+00	    0.000000E+00	
    1.197068E-02	    1.958259E-03	    0.000000E+00	    0.000000E+00	    1.000000E-03	    1.000000E-03	    1.000000E+03	    0.000000E+00	    0.000000E+00	    0.000000E+00	    0.000000E+00	
    1.205344E-02	    1.407248E-03	    0.000000E+00	    0.000000E+00	    1.000000E-03	    1.000000E-03	    1.000000E+03	    0.000000E+00	    0.000000E+00	    0.000000E+00	    0.000000E+00	
    1.209956E-02	    9.844691E-04	    0.000000E+00	    0.000000E+00	    1.000000E-03	    1.000000E-03	    1.000000E+03	    0.000000E+00	    0.000000E+00	    0.000000E+00	    0.000000E+00	
    1.212408E-02	    6.717413E-04	    0.000000E+00	    0.000000E+00	    1.000000E-03	    1.000000E-03	    1.000000E+03	    0.000000E+00	    0.000000E+00	    0.000000E+00	    0.000000E+00	
    1.213664E-02	    4.481479E-04	    0.000000E+00	    0.000000E+00	    1.000000E-03	    1.000000E-03	    1.000000E+03	    0.000000E+00	    0.000000E+00	    0.000000E+00	    0.000000E+00	
    1.214292E-02	    2.931943E-04	    0.000000E+00	    0.000000E+00	    1.000000E-03	    1.000000E-03	    1.000000E+03	    0.000000E+00	    0.000000E+00	    0.000000E+00	    0.000000E+00	
    1.214604E-02	    1.887791E-04	    0.000000E+00	    0.000000E+00	    1.000000E-03	    1.000000E-03	    1.000000E+03	    0.000000E+00	    0.000000E+00	    0.000000E+00	    0.000000E+00	
    1.214760E-02	    1.201162E-04	    0.000000E+00	    0.000000E+00	    1.000000E-03	    1.000000E-03	    1.000000E+03	    0.000000E+00	    0.000000E+00	    0.000000E+00	    0.000000E+00	
    1.214840E-02	    7.587059E-05	    0.000000E+00	    0.000000E+00	    1.000000E-03	    1.000000E-03	    1.000000E+03	    0.000000E+00	    0.000000E+00	    0.000000E+00	    0.000000E+00	
    1.214864E-02	    6.022430E-05	    0.000000E+00	    0.000000E+00	    1.000000E-03	    1.000000E-03	    1.000000E+03	    0.000000E+00	    0.000000E+00	    0.000000E+00	    0.000000E+00	
   -1.214823E-02	    6.021683E-05	    0.000000E+00	    0.000000E+00	    1.000000E-03	    1.000000E-03	    1.000000E+03	    0.000000E+00	    0.000000E+00	    0.000000E+00	    0.000000E+00	
   -1.214788E-02	    7.586052E-05	    1.431678E-04	   -1.000000E+00	    1.000789E-03	    1.000000E-03	    1.000000E+03	    3.586693E-06	    9.692589E-04	    2.702375E+05	    7.708134E+04	
   -1.214679E-02	    1.200973E-04	    4.410107E-04	   -1.000000E+00	    1.000820E-03	    1.000000E-03	    1.000000E+03	    3.727991E-06	    4.177878E-04	    1.120678E+05	    2.945185E+05	
   -1.214476E-02	    1.887422E-04	    8.279307E-04	   -1.000000E+00	    1.001468E-03	    1.000000E-03	    1.000000E+03	    6.673552E-06	    5.420405E-04	    8.122219E+04	    4.199285E+05	
   -1.214094E-02	    2.931200E-04	    1.369811E-03	   -1.000000E+00	    1.002663E-03	    1.000000E-03	    1.000000E+03	    1.210470E-05	    7.393455E-04	    6.107923E+04	    4.759122E+05	
   -1.213361E-02	    4.479957E-04	    2.153849E-03	   -1.000000E+00	    1.004631E-03	    1.000000E-03	    1.000000E+03	    2.104795E-05	    9.568966E-04	    4.546270E+04	    5.025195E+05	
   -1.211955E-02	    6.714295E-04	    3.284175E-03	   -1.000000E+00	    1.007749E-03	    1.000000E-03	    1.000000E+03	    3.522127E-05	    1.192747E-03	    3.386438E+04	    5.181919E+05	
   -1.209293E-02	    9.838410E-04	    4.876589E-03	   -1.000000E+00	    1.012483E-03	    1.000000E-03	    1.000000E+03	    5.674305E-05	    1.441581E-03	    2.540541E+04	    5.290414E+05	
   -1.204401E-02	    1.406019E-03	    7.048012E-03	   -1.000000E+00	    1.019344E-03	    1.000000E-03	    1.000000E+03	    8.792952E-05	    1.694526E-03	    1.927141E+04	    5.362889E+05	
   -1.195765E-02	    1.955950E-03	    9.898718E-03	   -1.000000E+00	    1.028814E-03	    1.000000E-03	    1.000000E+03	    1.309731E-04	    1.942124E-03	    1.482842E+04	    5.393610E+05	
   -1.181256E-02	    2.644593E-03	    1.348829E-02	   -1.000000E+00	    1.041246E-03	    1.000000E-03	    1.000000E+03	    1.874818E-04	    2.176016E-03	    1.160655E+04	    5.370835E+05	
   -1.158209E-02	    3.471175E-03	    1.780991E-02	   -1.000000E+00	    1.056746E-03	    1.000000E-03	    1.000000E+03	    2.579378E-04	    2.389673E-03	    9.264533E+03	    5.284940E+05	
   -1.123737E-02	    4.419185E-03	    2.277009E-02	   -1.000000E+00	    1.075068E-03	    1.000000E-03	    1.000000E+03	    3.412181E-04	    2.578765E-03	    7.557525E+03	    5.137067E+05	
   -1.075321E-02	    5.454763E-03	    2.818197E-02	   -1.000000E+00	    1.095562E-03	    1.000000E-03	    1.000000E+03	    4.343719E-04	    2.741274E-03	    6.310892E+03	    4.943245E+05	
   -1.011527E-02	    6.529136E-03	    3.378265E-02	   -1.000000E+00	    1.117220E-03	    1.000000E-03	    1.000000E+03	    5.328201E-04	    2.877200E-03	    5.399947E+03	    4.729511E+05	
   -9.326135E-03	    7.585587E-03	    3.927273E-02	   -1.000000E+00	    1.138821E-03	    1.000000E-03	    1.000000E+03	    6.310062E-04	    2.987809E-03	    4.734992E+03	    4.521263E+05	
   -8.407302E-03	    8.569391E-03	    4.436775E-02	   -1.000000E+00	    1.159146E-03	    1.000000E-03	    1.000000E+03	    7.233923E-04	    3.075196E-03	    4.251077E+03	    4.335813E+05	
   -7.395856E-03	    9.437422E-03	    4.884707E-02	   -1.000000E+00	    1.177208E-03	    1.000000E-03	    1.000000E+03	    8.054905E-04	    3.142160E-03	    3.900927E+03	    4.181290E+05	
   -6.337080E-03	    1.016411E-02	    5.258361E-02	   -1.000000E+00	    1.192399E-03	    1.000000E-03	    1.000000E+03	    8.745390E-04	    3.191961E-03	    3.649879E+03	    4.058999E+05	
   -5.275969E-03	    1.074227E-02	    5.554651E-02	   -1.000000E+00	    1.204519E-03	    1.000000E-03	    1.000000E+03	    9.296301E-04	    3.227941E-03	    3.472285E+03	    3.966297E+05	
   -4.250575E-03	    1.117974E-02	    5.778173E-02	   -1.000000E+00	    1.213704E-03	    1.000000E-03	    1.000000E+03	    9.713819E-04	    3.253175E-03	    3.349017E+03	    3.898771E+05	
   -3.288589E-03	    1.149396E-02	    5.938306E-02	   -1.000000E+00	    1.220307E-03	    1.000000E-03	    1.000000E+03	    1.001394E-03	    3.270280E-03	    3.265727E+03	    3.851583E+05	
   -2.406939E-03	    1.170666E-02	    6.046449E-02	   -1.000000E+00	    1.224777E-03	    1.000000E-03	    1.000000E+03	    1.021714E-03	    3.281365E-03	    3.211629E+03	    3.820201E+05	
   -1.613344E-03	    1.183985E-02	    6.114001E-02	   -1.000000E+00	    1.227575E-03	    1.000000E-03	    1.000000E+03	    1.034432E-03	    3.288073E-03	    3.178625E+03	    3.800708E+05	
   -9.086451E-04	    1.191341E-02	    6.151165E-02	   -1.000000E+00	    1.229118E-03	    1.000000E-03	    1.000000E+03	    1.041447E-03	    3.291649E-03	    3.160651E+03	    3.789900E+05	
   -2.891269E-04	    1.194400E-02	    6.166433E-02	   -1.000000E+00	    1.229756E-03	    1.000000E-03	    1.000000E+03	    1.044347E-03	    3.293022E-03	    3.153189E+03	    3.785234E+05	
    2.891269E-04	    1.194400E-02	    6.166433E-02	   -1.000000E+00	    1.229756E-03	    1.000000E-03	    1.000000E+03	    1.044347E-03	    3.293022E-03	    3.153189E+03	    3.785234E+05	
    9.086451E-04	    1.191341E-02	    6.151165E-02	   -1.000000E+00	    1.229118E-03	    1.000000E-03	    1.000000E+03	    1.041447E-03	    3.291649E-03	    3.160651E+03	    3.789900E+05	
    1.613344E-03	    1.183985E-02	    6.114001E-02	   -1.000000E+00	    1.227575E-03	    1.000000E-03	    1.000000E+03	    1.034432E-03	    3.288073E-03	    3.178625E+03	    3.800708E+05	
    2.406939E-03	    1.170666E-02	    6.046449E-02	   -1.000000E+00	    1.224777E-03	    1.000000E-03	    1.000000E+03	    1.021714E-03	    3.281365E-03	    3.211629E+03	    3.820201E+05	
    3.288589E-03	    1.149396E-02	    5.938306E-02	   -1.000000E+00	    1.220307E-03	    1.000000E-03	    1.000000E+03	    1.001394E-03	    3.270280E-03	    3.265727E+03	    3.851583E+05	
    4.250575E-03	    1.117974E-02	    5.778173E-02	   -1.000000E+00	    1.213704E-03	    1.000000E-03	    1.000000E+03	    9.713819E-04	    3.253175E-03	    3.349017E+03	    3.898771E+05	
    5.275969E-03	    1.074227E-02	    5.554651E-02	   -1.000000E+00	    1.204519E-03	    1.000000E-03	    1.000000E+03	    9.296301E-04	    3.227941E-03	    3.472285E+03	    3.966297E+05	
    6.337080E-03	    1.016411E-02	    5.258361E-02	   -1.000000E+00	    1.192399E-03	    1.000000E-03	    1.000000E+03	    8.745390E-04	    3.191961E-03	    3.649879E+03	    4.058999E+05	
    7.395856E-03	    9.437422E-03	    4.884707E-02	   -1.000000E+00	    1.177208E-03	    1.000000E-03	    1.000000E+03	    8.054905E-04	    3.142160E-03	    3.900927E+03	    4.181290E+05	
    8.407302E-03	    8.569391E-03	    4.436775E-02	   -1.000000E+00	    1.159146E-03	    1.000000E-03	    1.000000E+03	    7.233923E-04	    3.075196E-03	    4.251077E+03	    4.335813E+05	
    9.326135E-03	    7.585587E-03	    3.927273E-02	   -1.000000E+00	    1.138821E-03	    1.000000E-03	    1.000000E+03	    6.310062E-04	    2.987809E-03	    4.734992E+03	    4.521263E+05	
    1.011527E-02	    6.529136E-03	    3.378265E-02	   -1.000000E+00	    1.117220E-03	    1.000000E-03	    1.000000E+03	    5.328201E-04	    2.877200E-03	    5.399947E+03	    4.729511E+05	
    1.075321E-02	    5.454763E-03	    2.818197E-02	   -1.000000E+00	    1.095562E-03	    1.000000E-03	    1.000000E+03	    4.343719E-04	    2.741274E-03	    6.310892E+03	    4.943245E+05	
    1.123737E-02	    4.419185E-03	    2.277009E-02	   -1.000000E+00	    1.075068E-03	    1.000000E-03	    1.000000E+03	    3.412181E-04	    2.578765E-03	    7.557525E+03	    5.137067E+05	
    1.158209E-02	    3.471175E-03	    1.780991E-02	   -1.000000E+00	    1.056746E-03	    1.000000E-03	    1.000000E+03	    2.579378E-04	    2.389673E-03	    9.264533E+03	    5.284940E+05	
    1.181256E-02	    2.644593E-03	    1.348829E-02	   -1.000000E+00	    1.041246E-03	    1.000000E-03	    1.000000E+03	    1.874818E-04	    2.176016E-03	    1.160655E+04	    5.370835E+05	
    1.195765E-02	    1.955950E-03	    9.898718E-03	   -1.000000E+00	    1.028814E-03	    1.000000E-03	    1.000000E+03	    1.309731E-04	    1.942124E-03	    1.482842E+04	    5.393610E+05	
    1.204401E-02	    1.406019E-03	    7.048012E-03	   -1.000000E+00	    1.019344E-03	    1.000000E-03	    1.000000E+03	    8.792952E-05	    1.694526E-03	    1.927141E+04	    5.362889E+05	
    1.209293E-02	    9.838410E-04	    4.876589E-03	   -1.000000E+00	    1.012483E-03	    1.000000E-03	    1.000000E+03	    5.674305E-05	    1.441581E-03	    2.540541E+04	    5.290414E+05	
    1.211955E-02	    6.714295E-04	    3.284175E-03	   -1.000000E+00	    1.007749E-03	    1.000000E-03	    1.000000E+03	    3.522127E-05	    1.192747E-03	    3.386438E+04	    5.181919E+05	
    1.213361E-02	    4.479957E-04	    2.153849E-03	   -1.000000E+00	    1.004631E-03	    1.000000E-03	    1.000000E+03	    2.104795E-05	    9.568966E-04	    4.546270E+04	    5.025195E+05	
    1.214094E-02	    2.931200E-04	    1.369811E-03	   -1.000000E+00	    1.002663E-03	    1.000000E-03	    1.000000E+03	    1.210470E-05	    7.393455E-04	    6.107923E+04	    4.759122E+05	
    1.214476E-02	    1.887422E-04	    8.279307E-04	   -1.000000E+00	    1.001468E-03	    1.000000E-03	    1.000000E+03	    6.673552E-06	    5.420405E-04	    8.122219E+04	    4.199285E+05	
    1.214679E-02	    1.200973E-04	    4.410107E-04	   -1.000000E+00	    1.000820E-03	    1.000000E-03	    1.000000E+03	    3.727991E-06	    4.177878E-04	    1.120678E+05	    2.945185E+05	
    1.214788E-02	    7.586052E-05	    1.431678E-04	   -1.000000E+00	    1.000789E-03	    1.000000E-03	    1.000000E+03	    3.586693E-06	    9.692589E-04	    2.702375E+05	    7.708134E+04	
    1.214823E-02	    6.021683E-05	    0.000000E+00	    0.000000E+00	    1.000000E-03	    1.000000E-03	    1.000000E+03	    0.000000E+00	    0.000000E+00	    0.000000E+00	    0.000000E+00	
   -1.214729E-02	    6.018900E-05	    0.000000E+00	    0.000000E+00	    1.000000E-03	    1.000000E-03	    1.000000E+03	    0.000000E+00	    0.000000E+00	    0.000000E+00	    0.000000E+00	
   -1.214670E-02	    7.582392E-05	    4.707885E-04	   -1.000000E+00	    1.024086E-03	    1.000000E-03	    1.000000E+03	    1.094831E-04	    9.709248E-04	    8.868265E+03	    7.587550E+04	
   -1.214491E-02	    1.200325E-04	    1.460341E-03	   -1.000000E+00	    1.000856E-03	    1.000000E-03	    1.000000E+03	    3.892077E-06	    3.743150E-04	    9.617358E+04	    2.943446E+05	
   -1.214181E-02	    1.886237E-04	    2.740119E-03	   -1.000000E+00	    1.001492E-03	    1.000000E-03	    1.000000E+03	    6.780160E-06	    4.529555E-04	    6.680602E+04	    4.191171E+05	
   -1.213636E-02	    2.928967E-04	    4.528987E-03	   -1.000000E+00	    1.002723E-03	    1.000000E-03	    1.000000E+03	    1.237872E-05	    5.839019E-04	    4.716982E+04	    4.741935E+05	
   -1.212662E-02	    4.475651E-04	    7.109510E-03	   -1.000000E+00	    1.004817E-03	    1.000000E-03	    1.000000E+03	    2.189349E-05	    7.139073E-04	    3.260820E+04	    4.993532E+05	
   -1.210908E-02	    6.705914E-04	    1.081211E-02	   -1.000000E+00	    1.008321E-03	    1.000000E-03	    1.000000E+03	    3.782182E-05	    8.448350E-04	    2.233724E+04	    5.125426E+05	
   -1.207763E-02	    9.822180E-04	    1.598926E-02	   -1.000000E+00	    1.014178E-03	    1.000000E-03	    1.000000E+03	    6.444662E-05	    9.862767E-04	    1.530378E+04	    5.188757E+05	
   -1.202224E-02	    1.402938E-03	    2.296537E-02	   -1.000000E+00	    1.024084E-03	    1.000000E-03	    1.000000E+03	    1.094718E-04	    1.157828E-03	    1.057650E+04	    5.174927E+05	
   -1.192760E-02	    1.950285E-03	    3.195238E-02	   -1.000000E+00	    1.041081E-03	    1.000000E-03	    1.000000E+03	    1.867338E-04	    1.389370E-03	    7.440376E+03	    5.042669E+05	
   -1.177247E-02	    2.634602E-03	    4.293626E-02	   -1.000000E+00	    1.070061E-03	    1.000000E-03	    1.000000E+03	    3.184578E-04	    1.712673E-03	    5.378021E+03	    4.748574E+05	
   -1.153055E-02	    3.454397E-03	    5.557794E-02	   -1.000000E+00	    1.117142E-03	    1.000000E-03	    1.000000E+03	    5.324654E-04	    2.144586E-03	    4.027652E+03	    4.299656E+05	
   -1.117378E-02	    4.392487E-03	    6.921375E-02	   -1.000000E+00	    1.187105E-03	    1.000000E-03	    1.000000E+03	    8.504780E-04	    2.671225E-03	    3.140852E+03	    3.767523E+05	
   -1.067819E-02	    5.414629E-03	    8.300254E-02	   -1.000000E+00	    1.280218E-03	    1.000000E-03	    1.000000E+03	    1.273717E-03	    3.249024E-03	    2.550822E+03	    3.239086E+05	
   -1.003092E-02	    6.472204E-03	    9.614469E-02	   -1.000000E+00	    1.391238E-03	    1.000000E-03	    1.000000E+03	    1.778357E-03	    3.823779E-03	    2.150176E+03	    2.772861E+05	
   -9.235913E-03	    7.509312E-03	    1.080350E-01	   -1.000000E+00	    1.511115E-03	    1.000000E-03	    1.000000E+03	    2.323249E-03	    4.350193E-03	    1.872461E+03	    2.392233E+05	
   -8.315535E-03	    8.472593E-03	    1.183072E-01	   -1.000000E+00	    1.629803E-03	    1.000000E-03	    1.000000E+03	    2.862741E-03	    4.800927E-03	    1.677039E+03	    2.097045E+05	
   -7.307050E-03	    9.320514E-03	    1.268137E-01	   -1.000000E+00	    1.738741E-03	    1.000000E-03	    1.000000E+03	    3.357913E-03	    5.166296E-03	    1.538543E+03	    1.876066E+05	
   -6.255204E-03	    1.002892E-02	    1.335806E-01	   -1.000000E+00	    1.832261E-03	    1.000000E-03	    1.000000E+03	    3.783003E-03	    5.449345E-03	    1.440481E+03	    1.714961E+05	
   -5.203978E-03	    1.059161E-02	    1.387562E-01	   -1.000000E+00	    1.907854E-03	    1.000000E-03	    1.000000E+03	    4.126611E-03	    5.660176E-03	    1.371628E+03	    1.600171E+05	
   -4.190247E-03	    1.101682E-02	    1.425586E-01	   -1.000000E+00	    1.965621E-03	    1.000000E-03	    1.000000E+03	    4.389186E-03	    5.811501E-03	    1.324050E+03	    1.520300E+05	
   -3.240621E-03	    1.132195E-02	    1.452321E-01	   -1.000000E+00	    2.007363E-03	    1.000000E-03	    1.000000E+03	    4.578924E-03	    5.915912E-03	    1.291987E+03	    1.466313E+05	
   -2.371191E-03	    1.152836E-02	    1.470145E-01	   -1.000000E+00	    2.035717E-03	    1.000000E-03	    1.000000E+03	    4.707804E-03	    5.984541E-03	    1.271196E+03	    1.431257E+05	
   -1.589115E-03	    1.165755E-02	    1.481185E-01	   -1.000000E+00	    2.053500E-03	    1.000000E-03	    1.000000E+03	    4.788634E-03	    6.026606E-03	    1.258523E+03	    1.409872E+05	
   -8.949153E-04	    1.172889E-02	    1.487225E-01	   -1.000000E+00	    2.063316E-03	    1.000000E-03	    1.000000E+03	    4.833256E-03	    6.049424E-03	    1.251625E+03	    1.398219E+05	
   -2.847470E-04	    1.175854E-02	    1.489695E-01	   -1.000000E+00	    2.067372E-03	    1.000000E-03	    1.000000E+03	    4.851691E-03	    6.058634E-03	    1.248767E+03	    1.393368E+05	
    2.847470E-04	    1.175854E-02	    1.489695E-01	   -1.000000E+00	    2.067372E-03	    1.000000E-03	    1.000000E+03	    4.851691E-03	    6.058634E-03	    1.248767E+03	    1.393368E+05	
    8.949153E-04	    1.172889E-02	    1.487225E-01	   -1.000000E+00	    2.063316E-03	    1.000000E-03	    1.000000E+03	    4.833256E-03	    6.049424E-03	    1.251625E+03	    1.398219E+05	
    1.589115E-03	    1.165755E-02	    1.481185E-01	   -1.000000E+00	    2.053500E-03	    1.000000E-03	    1.000000E+03	    4.788634E-03	    6.026606E-03	    1.258523E+03	    1.409872E+05	
    2.371191E-03	    1.152836E-02	    1.470145E-01	   -1.000000E+00	    2.035717E-03	    1.000000E-03	    1.000000E+03	    4.707804E-03	    5.984541E-03	    1.271196E+03	    1.431257E+05	
    3.240621E-03	    1.132195E-02	    1.452321E-01	   -1.000000E+00	    2.007363E-03	    1.000000E-03	    1.000000E+03	    4.578924E-03	    5.915912E-03	    1.291987E+03	    1.466313E+05	
    4.190247E-03	    1.101682E-02	    1.425586E-01	   -1.000000E+00	    1.965621E-03	    1.000000E-03	    1.000000E+03	    4.389186E-03	    5.811501E-03	    1.324050E+03	    1.520300E+05	
    5.203978E-03	    1.059161E-02	    1.387562E-01	   -1.000000E+00	    1.907854E-03	    1.000000E-03	    1.000000E+03	    4.126611E-03	    5.660176E-03	    1.371628E+03	    1.600171E+05	
    6.255204E-03	    1.002892E-02	    1.335806E-01	   -1.000000E+00	    1.832261E-03	    1.000000E-03	    1.000000E+03	    3.783003E-03	    5.449345E-03	    1.440481E+03	    1.714961E+05	
    7.307050E-03	    9.320514E-03	    1.268137E-01	   -1.000000E+00	    1.738741E-03	    1.000000E-03	    1.000000E+03	    3.357913E-03	    5.166296E-03	    1.538543E+03	    1.876066E+05	
    8.315535E-03	    8.472593E-03	    1.183072E-01	   -1.000000E+00	    1.629803E-03	    1.000000E-03	    1.000000E+03	    2.862741E-03	    4.800927E-03	    1.677039E+03	    2.097045E+05	
    9.235913E-03	    7.509312E-03	    1.080350E-01	   -1.000000E+00	    1.511115E-03	    1.000000E-03	    1.000000E+03	    2.323249E-03	    4.350193E-03	    1.872461E+03	    2.392233E+05	
    1.003092E-02	    6.472204E-03	    9.614469E-02	   -1.000000E+00	    1.391238E-03	    1.000000E-03	    1.000000E+03	    1.778357E-03	    3.823779E-03	    2.150176E+03	    2.772861E+05	
    1.067819E-02	    5.414629E-03	    8.300254E-02	   -1.000000E+00	    1.280218E-03	    1.000000E-03	    1.000000E+03	    1.273717E-03	    3.249024E-03	    2.550822E+03	    3.239086E+05	
    1.117378E-02	    4.392487E-03	    6.921375E-02	   -1.000000E+00	    1.187105E-03	    1.000000E-03	    1.000000E+03	    8.504780E-04	    2.671225E-03	    3.140852E+03	    3.767523E+05	
    1.153055E-02	    3.454397E-03	    5.557794E-02	   -1.000000E+00	    1.117142E-03	    1.000000E-03	    1.000000E+03	    5.324654E-04	    2.144586E-03	    4.027652E+03	    4.299656E+05	
    1.177247E-02	    2.634602E-03	    4.293626E-02	   -1.000000E+00	    1.070061E-03	    1.000000E-03	    1.000000E+03	    3.184578E-04	    1.712673E-03	    5.378021E+03	    4.748574E+05	
    1.192760E-02	    1.950285E-03	    3.195238E-02	   -1.000000E+00	    1.041081E-03	    1.000000E-03	    1.000000E+03	    1.867338E-04	    1.389370E-03	    7.440376E+03	    5.042669E+05	
    1.202224E-02	    1.402938E-03	    2.296537E-02	   -1.000000E+00	    1.024084E-03	    1.000000E-03	    1.000000E+03	    1.094718E-04	    1.157828E-03	    1.057650E+04	    5.174927E+05	
    1.207763E-02	    9.822180E-04	    1.598926E-02	   -1.000000E+00	    1.014178E-03	    1.000000E-03	    1.000000E+03	    6.444662E-05	    9.862767E-04	    1.530378E+04	    5.188757E+05	
    1.210908E-02	    6.705914E-04	    1.081211E-02	   -1.000000E+00	    1.008321E-03	    1.000000E-03	    1.000000E+03	    3.782182E-05	    8.448350E-04	    2.233724E+04	    5.125426E+05	
    1.212662E-02	    4.475651E-04	    7.109510E-03	   -1.000000E+00	    1.004817E-03	    1.000000E-03	    1.000000E+03	    2.189349E-05	    7.139073E-04	    3.260820E+04	    4.993532E+05	
    1.213636E-02	    2.928967E-04	    4.528987E-03	   -1.000000E+00	    1.002723E-03	    1.000000E-03	    1.000000E+03	    1.237872E-05	    5.839019E-04	    4.716982E+04	    4.741935E+05	
    1.214181E-02	    1.886237E-04	    2.740119E-03	   -1.000000E+00	    1.001492E-03	    1.000000E-03	    1.000000E+03	    6.780160E-06	    4.529555E-04	    6.680602E+04	    4.191171E+05	
    1.214491E-02	    1.200325E-04	    1.460341E-03	   -1.000000E+00	    1.000856E-03	    1.000000E-03	    1.000000E+03	    3.892077E-06	    3.743150E-04	    9.617358E+04	    2.943446E+05	
    1.214670E-02	    7.582392E-05	    4.707885E-04	   -1.000000E+00	    1.024086E-03	    1.000000E-03	    1.000000E+03	    1.094831E-04	    9.709248E-04	    8.868265E+03	    7.587550E+04	
    1.214729E-02	    6.018900E-05	    0.000000E+00	    0.000000E+00	    1.000000E-03	    1.000000E-03	    1.000000E+03	    0.000000E+00	    0.000000E+00	    0.000000E+00	    0.000000E+00	
   -1.214606E-02	    6.013027E-05	    0.000000E+00	    0.000000E+00	    1.000000E-03	    1.000000E-03	    1.000000E+03	    0.000000E+00	    0.000000E+00	    0.000000E+00	    0.000000E+00	
   -1.214514E-02	    7.574794E-05	    8.939211E-04	   -1.000000E+00	    1.024139E-03	    1.000000E-03	    1.000000E+03	    1.097238E-04	    9.754231E-04	    8.889804E+03	    7.675631E+04	