Title="Fields"
Variables="X""Y""Velocity""Phi""Effective Viscosity""Dynamic Viscosity""Density""Eddy Viscosity""K""Omega""S""F1SST""distance""GEN"
Zone I=52 J=52 F=POINT
   -1.036934E-02	    4.398552E-05	    0.000000E+00	    0.000000E+00	    1.000000E-03	    1.000000E-03	    1.000000E+03	    0.000000E+00	    0.000000E+00	    1.928211E+09	    0.000000E+00	    1.000000E+00	    0.000000E+00	    0.000000E+00	
   -1.036237E-02	    5.537687E-05	    0.000000E+00	    0.000000E+00	    1.000000E-03	    1.000000E-03	    1.000000E+03	    0.000000E+00	    0.000000E+00	    1.928211E+09	    0.000000E+00	    1.000000E+00	    0.000000E+00	    0.000000E+00	
   -1.034263E-02	    8.750983E-05	    0.000000E+00	    0.000000E+00	    1.000000E-03	    1.000000E-03	    1.000000E+03	    0.000000E+00	    0.000000E+00	    7.721535E+08	    0.000000E+00	    1.000000E+00	    0.000000E+00	    0.000000E+00	
   -1.031187E-02	    1.371423E-04	    0.000000E+00	    0.000000E+00	    1.000000E-03	    1.000000E-03	    1.000000E+03	    0.000000E+00	    0.000000E+00	    3.144007E+08	    0.000000E+00	    1.000000E+00	    0.000000E+00	    0.000000E+00	
   -1.026480E-02	    2.120789E-04	    0.000000E+00	    0.000000E+00	    1.000000E-03	    1.000000E-03	    1.000000E+03	    0.000000E+00	    0.000000E+00	    1.314757E+08	    0.000000E+00	    1.000000E+00	    0.000000E+00	    0.000000E+00	
   -1.019429E-02	    3.221029E-04	    0.000000E+00	    0.000000E+00	    1.000000E-03	    1.000000E-03	    1.000000E+03	    0.000000E+00	    0.000000E+00	    5.699958E+07	    0.000000E+00	    1.000000E+00	    0.000000E+00	    0.000000E+00	
   -1.009120E-02	    4.784218E-04	    0.000000E+00	    0.000000E+00	    1.000000E-03	    1.000000E-03	    1.000000E+03	    0.000000E+00	    0.000000E+00	    2.583853E+07	    0.000000E+00	    1.000000E+00	    0.000000E+00	    0.000000E+00	
   -9.944414E-03	    6.923511E-04	    0.000000E+00	    0.000000E+00	    1.000000E-03	    1.000000E-03	    1.000000E+03	    0.000000E+00	    0.000000E+00	    1.233891E+07	    0.000000E+00	    1.000000E+00	    0.000000E+00	    0.000000E+00	
   -9.741245E-03	    9.731698E-04	    0.000000E+00	    0.000000E+00	    1.000000E-03	    1.000000E-03	    1.000000E+03	    0.000000E+00	    0.000000E+00	    6.246034E+06	    0.000000E+00	    1.000000E+00	    0.000000E+00	    0.000000E+00	
   -9.468489E-03	    1.325399E-03	    0.000000E+00	    0.000000E+00	    1.000000E-03	    1.000000E-03	    1.000000E+03	    0.000000E+00	    0.000000E+00	    3.367855E+06	    0.000000E+00	    1.000000E+00	    0.000000E+00	    0.000000E+00	
   -9.114163E-03	    1.746166E-03	    0.000000E+00	    0.000000E+00	    1.000000E-03	    1.000000E-03	    1.000000E+03	    0.000000E+00	    0.000000E+00	    1.940681E+06	    0.000000E+00	    1.000000E+00	    0.000000E+00	    0.000000E+00	
   -8.669937E-03	    2.223614E-03	    0.000000E+00	    0.000000E+00	    1.000000E-03	    1.000000E-03	    1.000000E+03	    0.000000E+00	    0.000000E+00	    1.197002E+06	    0.000000E+00	    1.000000E+00	    0.000000E+00	    0.000000E+00	
   -8.133797E-03	    2.737315E-03	    0.000000E+00	    0.000000E+00	    1.000000E-03	    1.000000E-03	    1.000000E+03	    0.000000E+00	    0.000000E+00	    7.900594E+05	    0.000000E+00	    1.000000E+00	    0.000000E+00	    0.000000E+00	
   -7.512062E-03	    3.261002E-03	    0.000000E+00	    0.000000E+00	    1.000000E-03	    1.000000E-03	    1.000000E+03	    0.000000E+00	    0.000000E+00	    5.568071E+05	    0.000000E+00	    1.000000E+00	    0.000000E+00	    0.000000E+00	
   -6.819798E-03	    3.767071E-03	    0.000000E+00	    0.000000E+00	    1.000000E-03	    1.000000E-03	    1.000000E+03	    0.000000E+00	    0.000000E+00	    4.173438E+05	    0.000000E+00	    1.000000E+00	    0.000000E+00	    0.000000E+00	
   -6.079143E-03	    4.231398E-03	    0.000000E+00	    0.000000E+00	    1.000000E-03	    1.000000E-03	    1.000000E+03	    0.000000E+00	    0.000000E+00	    3.308425E+05	    0.000000E+00	    1.000000E+00	    0.000000E+00	    0.000000E+00	
   -5.315967E-03	    4.636919E-03	    0.000000E+00	    0.000000E+00	    1.000000E-03	    1.000000E-03	    1.000000E+03	    0.000000E+00	    0.000000E+00	    2.755539E+05	    0.000000E+00	    1.000000E+00	    0.000000E+00	    0.000000E+00	
   -4.555950E-03	    4.975055E-03	    0.000000E+00	    0.000000E+00	    1.000000E-03	    1.000000E-03	    1.000000E+03	    0.000000E+00	    0.000000E+00	    2.394056E+05	    0.000000E+00	    1.000000E+00	    0.000000E+00	    0.000000E+00	
   -3.821314E-03	    5.245014E-03	    0.000000E+00	    0.000000E+00	    1.000000E-03	    1.000000E-03	    1.000000E+03	    0.000000E+00	    0.000000E+00	    2.154211E+05	    0.000000E+00	    1.000000E+00	    0.000000E+00	    0.000000E+00	
   -3.128899E-03	    5.451791E-03	    0.000000E+00	    0.000000E+00	    1.000000E-03	    1.000000E-03	    1.000000E+03	    0.000000E+00	    0.000000E+00	    1.994082E+05	    0.000000E+00	    1.000000E+00	    0.000000E+00	    0.000000E+00	
   -2.489672E-03	    5.603766E-03	    0.000000E+00	    0.000000E+00	    1.000000E-03	    1.000000E-03	    1.000000E+03	    0.000000E+00	    0.000000E+00	    1.887516E+05	    0.000000E+00	    1.000000E+00	    0.000000E+00	    0.000000E+00	
   -1.909281E-03	    5.710630E-03	    0.000000E+00	    0.000000E+00	    1.000000E-03	    1.000000E-03	    1.000000E+03	    0.000000E+00	    0.000000E+00	    1.817621E+05	    0.000000E+00	    1.000000E+00	    0.000000E+00	    0.000000E+00	
   -1.389150E-03	    5.781908E-03	    0.000000E+00	    0.000000E+00	    1.000000E-03	    1.000000E-03	    1.000000E+03	    0.000000E+00	    0.000000E+00	    1.773139E+05	    0.000000E+00	    1.000000E+00	    0.000000E+00	    0.000000E+00	
   -9.276960E-04	    5.826114E-03	    0.000000E+00	    0.000000E+00	    1.000000E-03	    1.000000E-03	    1.000000E+03	    0.000000E+00	    0.000000E+00	    1.746368E+05	    0.000000E+00	    1.000000E+00	    0.000000E+00	    0.000000E+00	
   -5.214213E-04	    5.850389E-03	    0.000000E+00	    0.000000E+00	    1.000000E-03	    1.000000E-03	    1.000000E+03	    0.000000E+00	    0.000000E+00	    1.731925E+05	    0.000000E+00	    1.000000E+00	    0.000000E+00	    0.000000E+00	
   -1.657738E-04	    5.860451E-03	    0.000000E+00	    0.000000E+00	    1.000000E-03	    1.000000E-03	    1.000000E+03	    0.000000E+00	    0.000000E+00	    1.725990E+05	    0.000000E+00	    1.000000E+00	    0.000000E+00	    0.000000E+00	
    1.657738E-04	    5.860451E-03	    0.000000E+00	    0.000000E+00	    1.000000E-03	    1.000000E-03	    1.000000E+03	    0.000000E+00	    0.000000E+00	    1.725990E+05	    0.000000E+00	    1.000000E+00	    0.000000E+00	    0.000000E+00	
    5.214213E-04	    5.850389E-03	    0.000000E+00	    0.000000E+00	    1.000000E-03	    1.000000E-03	    1.000000E+03	    0.000000E+00	    0.000000E+00	    1.731925E+05	    0.000000E+00	    1.000000E+00	    0.000000E+00	    0.000000E+00	
    9.276960E-04	    5.826114E-03	    0.000000E+00	    0.000000E+00	    1.000000E-03	    1.000000E-03	    1.000000E+03	    0.000000E+00	    0.000000E+00	    1.746368E+05	    0.000000E+00	    1.000000E+00	    0.000000E+00	    0.000000E+00	
    1.389150E-03	    5.781908E-03	    0.000000E+00	    0.000000E+00	    1.000000E-03	    1.000000E-03	    1.000000E+03	    0.000000E+00	    0.000000E+00	    1.773139E+05	    0.000000E+00	    1.000000E+00	    0.000000E+00	    0.000000E+00	
    1.909281E-03	    5.710630E-03	    0.000000E+00	    0.000000E+00	    1.000000E-03	    1.000000E-03	    1.000000E+03	    0.000000E+00	    0.000000E+00	    1.817621E+05	    0.000000E+00	    1.000000E+00	    0.000000E+00	    0.000000E+00	
    2.489672E-03	    5.603766E-03	    0.000000E+00	    0.000000E+00	    1.000000E-03	    1.000000E-03	    1.000000E+03	    0.000000E+00	    0.000000E+00	    1.887516E+05	    0.000000E+00	    1.000000E+00	    0.000000E+00	    0.000000E+00	
    3.128899E-03	    5.451791E-03	    0.000000E+00	    0.000000E+00	    1.000000E-03	    1.000000E-03	    1.000000E+03	    0.000000E+00	    0.000000E+00	    1.994082E+05	    0.000000E+00	    1.000000E+00	    0.000000E+00	    0.000000E+00	
    3.821314E-03	    5.245014E-03	    0.000000E+00	    0.000000E+00	    1.000000E-03	    1.000000E-03	    1.000000E+03	    0.000000E+00	    0.000000E+00	    2.154211E+05	    0.000000E+00	    1.000000E+00	    0.000000E+00	    0.000000E+00	
    4.555950E-03	    4.975055E-03	    0.000000E+00	    0.000000E+00	    1.000000E-03	    1.000000E-03	    1.000000E+03	    0.000000E+00	    0.000000E+00	    2.394056E+05	    0.000000E+00	    1.000000E+00	    0.000000E+00	    0.000000E+00	
    5.315967E-03	    4.636919E-03	    0.000000E+00	    0.000000E+00	    1.000000E-03	    1.000000E-03	    1.000000E+03	    0.000000E+00	    0.000000E+00	    2.755539E+05	    0.000000E+00	    1.000000E+00	    0.000000E+00	    0.000000E+00	
    6.079143E-03	    4.231398E-03	    0.000000E+00	    0.000000E+00	    1.000000E-03	    1.000000E-03	    1.000000E+03	    0.000000E+00	    0.000000E+00	    3.308425E+05	    0.000000E+00	    1.000000E+00	    0.000000E+00	    0.000000E+00	
    6.819798E-03	    3.767071E-03	    0.000000E+00	    0.000000E+00	    1.000000E-03	    1.000000E-03	    1.000000E+03	    0.000000E+00	    0.000000E+00	    4.173438E+05	    0.000000E+00	    1.000000E+00	    0.000000E+00	    0.000000E+00	
    7.512062E-03	    3.261002E-03	    0.000000E+00	    0.000000E+00	    1.000000E-03	    1.000000E-03	    1.000000E+03	    0.000000E+00	    0.000000E+00	    5.568071E+05	    0.000000E+00	    1.000000E+00	    0.000000E+00	    0.000000E+00	
    8.133797E-03	    2.737315E-03	    0.000000E+00	    0.000000E+00	    1.000000E-03	    1.000000E-03	    1.000000E+03	    0.000000E+00	    0.000000E+00	    7.900594E+05	    0.000000E+00	    1.000000E+00	    0.000000E+00	    0.000000E+00	
    8.669937E-03	    2.223614E-03	    0.000000E+00	    0.000000E+00	    1.000000E-03	    1.000000E-03	    1.000000E+03	    0.000000E+00	    0.000000E+00	    1.197002E+06	    0.000000E+00	    1.000000E+00	    0.000000E+00	    0.000000E+00	
    9.114163E-03	    1.746166E-03	    0.000000E+00	    0.000000E+00	    1.000000E-03	    1.000000E-03	    1.000000E+03	    0.000000E+00	    0.000000E+00	    1.940681E+06	    0.000000E+00	    1.000000E+00	    0.000000E+00	    0.000000E+00	
    9.468489E-03	    1.325399E-03	    0.000000E+00	    0.000000E+00	    1.000000E-03	    1.000000E-03	    1.000000E+03	    0.000000E+00	    0.000000E+00	    3.367855E+06	    0.000000E+00	    1.000000E+00	    0.000000E+00	    0.000000E+00	
    9.741245E-03	    9.731698E-04	    0.000000E+00	    0.000000E+00	    1.000000E-03	    1.000000E-03	    1.000000E+03	    0.000000E+00	    0.000000E+00	    6.246034E+06	    0.000000E+00	    1.000000E+00	    0.000000E+00	    0.000000E+00	
    9.944414E-03	    6.923511E-04	    0.000000E+00	    0.000000E+00	    1.000000E-03	    1.000000E-03	    1.000000E+03	    0.000000E+00	    0.000000E+00	    1.233891E+07	    0.000000E+00	    1.000000E+00	    0.000000E+00	    0.000000E+00	
    1.009120E-02	    4.784218E-04	    0.000000E+00	    0.000000E+00	    1.000000E-03	    1.000000E-03	    1.000000E+03	    0.000000E+00	    0.000000E+00	    2.583853E+07	    0.000000E+00	    1.000000E+00	    0.000000E+00	    0.000000E+00	
    1.019429E-02	    3.221029E-04	    0.000000E+00	    0.000000E+00	    1.000000E-03	    1.000000E-03	    1.000000E+03	    0.000000E+00	    0.000000E+00	    5.699958E+07	    0.000000E+00	    1.000000E+00	    0.000000E+00	    0.000000E+00	
    1.026480E-02	    2.120789E-04	    0.000000E+00	    0.000000E+00	    1.000000E-03	    1.000000E-03	    1.000000E+03	    0.000000E+00	    0.000000E+00	    1.314757E+08	    0.000000E+00	    1.000000E+00	    0.000000E+00	    0.000000E+00	
    1.031187E-02	    1.371423E-04	    0.000000E+00	    0.000000E+00	    1.000000E-03	    1.000000E-03	    1.000000E+03	    0.000000E+00	    0.000000E+00	    3.144007E+08	    0.000000E+00	    1.000000E+00	    0.000000E+00	    0.000000E+00	
    1.034263E-02	    8.750983E-05	    0.000000E+00	    0.000000E+00	    1.000000E-03	    1.000000E-03	    1.000000E+03	    0.000000E+00	    0.000000E+00	    7.721535E+08	    0.000000E+00	    1.000000E+00	    0.000000E+00	    0.000000E+00	
    1.036237E-02	    5.537687E-05	    0.000000E+00	    0.000000E+00	    1.000000E-03	    1.000000E-03	    1.000000E+03	    0.000000E+00	    0.000000E+00	    1.928211E+09	    0.000000E+00	    1.000000E+00	    0.000000E+00	    0.000000E+00	
    1.036934E-02	    4.398552E-05	    0.000000E+00	    0.000000E+00	    1.000000E-03	    1.000000E-03	    1.000000E+03	    0.000000E+00	    0.000000E+00	    0.000000E+00	    0.000000E+00	    1.000000E+00	    0.000000E+00	    0.000000E+00	
   -1.036914E-02	    4.386592E-05	    0.000000E+00	    0.000000E+00	    1.000000E-03	    1.000000E-03	    1.000000E+03	    0.000000E+00	    0.000000E+00	    0.000000E+00	    0.000000E+00	    1.000000E+00	    0.000000E+00	    0.000000E+00	
   -1.036213E-02	    5.522601E-05	    2.578478E-04	   -1.000000E+00	    1.600000E-03	    1.600000E-03	    8.010000E+02	    2.891387E-15	    6.960304E-09	    1.928211E+09	    5.297493E+05	    1.000000E+00	    2.878800E-07	    5.548192E+02	
   -1.034225E-02	    8.727024E-05	    6.506855E-04	   -1.000000E+00	    1.600000E-03	    1.600000E-03	    8.010000E+02	    1.438108E-14	    1.386317E-08	    7.721535E+08	    1.350481E+06	    1.000000E+00	    4.549220E-07	    7.912712E+02	
   -1.031127E-02	    1.367639E-04	    1.175229E-03	   -1.000000E+00	    1.600000E-03	    1.600000E-03	    8.010000E+02	    1.154006E-13	    4.529593E-08	    3.144007E+08	    1.793707E+06	    1.000000E+00	    7.129301E-07	    1.051852E+03	
   -1.026387E-02	    2.114870E-04	    1.892167E-03	   -1.000000E+00	    1.600000E-03	    1.600000E-03	    8.010000E+02	    7.168860E-13	    1.176693E-07	    1.314757E+08	    1.944306E+06	    1.000000E+00	    1.102468E-06	    1.141447E+03	
   -1.019289E-02	    3.211888E-04	    2.866431E-03	   -1.000000E+00	    1.600000E-03	    1.600000E-03	    8.010000E+02	    3.809929E-12	    2.711165E-07	    5.699958E+07	    1.934279E+06	    1.000000E+00	    1.674376E-06	    1.137916E+03	
   -1.008914E-02	    4.770323E-04	    4.173817E-03	   -1.000000E+00	    1.600000E-03	    1.600000E-03	    8.010000E+02	    1.792912E-11	    5.783547E-07	    2.583853E+07	    1.858856E+06	    1.000000E+00	    2.486880E-06	    1.097028E+03	
   -9.941473E-03	    6.902772E-04	    5.896739E-03	   -1.000000E+00	    1.600000E-03	    1.600000E-03	    8.010000E+02	    7.562605E-11	    1.164972E-06	    1.233891E+07	    1.771474E+06	    1.000000E+00	    3.598739E-06	    1.050427E+03	
   -9.737196E-03	    9.701384E-04	    8.102555E-03	   -1.000000E+00	    1.600000E-03	    1.600000E-03	    8.010000E+02	    2.857203E-10	    2.227989E-06	    6.246034E+06	    1.692694E+06	    1.000000E+00	    5.058090E-06	    1.010420E+03	
   -9.463130E-03	    1.321072E-03	    1.082940E-02	   -1.000000E+00	    1.600000E-03	    1.600000E-03	    8.010000E+02	    9.628465E-10	    4.048349E-06	    3.367855E+06	    1.629895E+06	    1.000000E+00	    6.888300E-06	    9.815585E+02	
   -9.107368E-03	    1.740152E-03	    1.404332E-02	   -1.000000E+00	    1.600001E-03	    1.600000E-03	    8.010000E+02	    2.869372E-09	    6.951981E-06	    1.940681E+06	    1.578805E+06	    1.000000E+00	    9.074269E-06	    9.611640E+02	
   -8.661707E-03	    2.215505E-03	    1.764494E-02	   -1.000000E+00	    1.600001E-03	    1.600000E-03	    8.010000E+02	    7.522961E-09	    1.124219E-05	    1.197002E+06	    1.536672E+06	    1.000000E+00	    1.155424E-05	    9.472390E+02	
   -8.124294E-03	    2.726734E-03	    2.148960E-02	   -1.000000E+00	    1.600003E-03	    1.600000E-03	    8.010000E+02	    1.735186E-08	    1.711486E-05	    7.900594E+05	    1.503681E+06	    1.000000E+00	    1.422195E-05	    9.394927E+02	
   -7.501609E-03	    3.247671E-03	    2.537829E-02	   -1.000000E+00	    1.600006E-03	    1.600000E-03	    8.010000E+02	    3.526373E-08	    2.451323E-05	    5.568071E+05	    1.477244E+06	    1.000000E+00	    1.694092E-05	    9.358050E+02	
   -6.808838E-03	    3.750861E-03	    2.910711E-02	   -1.000000E+00	    1.600011E-03	    1.600000E-03	    8.010000E+02	    6.346914E-08	    3.306923E-05	    4.173438E+05	    1.455789E+06	    1.000000E+00	    1.956784E-05	    9.343774E+02	
   -6.068172E-03	    4.212355E-03	    3.248449E-02	   -1.000000E+00	    1.600018E-03	    1.600000E-03	    8.010000E+02	    1.020155E-07	    4.213615E-05	    3.308425E+05	    1.436709E+06	    1.000000E+00	    2.197758E-05	    9.331269E+02	
   -5.305455E-03	    4.615253E-03	    3.544210E-02	   -1.000000E+00	    1.600027E-03	    1.600000E-03	    8.010000E+02	    1.487676E-07	    5.117789E-05	    2.755539E+05	    1.423803E+06	    1.000000E+00	    2.408174E-05	    9.345048E+02	
   -4.546286E-03	    4.951095E-03	    3.791361E-02	   -1.000000E+00	    1.600036E-03	    1.600000E-03	    8.010000E+02	    1.992537E-07	    5.955361E-05	    2.394056E+05	    1.415020E+06	    1.000000E+00	    2.583598E-05	    9.369061E+02	
   -3.812769E-03	    5.219153E-03	    3.987843E-02	   -1.000000E+00	    1.600045E-03	    1.600000E-03	    8.010000E+02	    2.481969E-07	    6.675014E-05	    2.154211E+05	    1.408197E+06	    1.000000E+00	    2.723634E-05	    9.387790E+02	
   -3.121627E-03	    5.424432E-03	    4.134644E-02	   -1.000000E+00	    1.600052E-03	    1.600000E-03	    8.010000E+02	    2.908942E-07	    7.241784E-05	    1.994082E+05	    1.400886E+06	    1.000000E+00	    2.830884E-05	    9.384549E+02	
   -2.483725E-03	    5.575283E-03	    4.242800E-02	   -1.000000E+00	    1.600059E-03	    1.600000E-03	    8.010000E+02	    3.258273E-07	    7.677957E-05	    1.887516E+05	    1.396025E+06	    1.000000E+00	    2.909704E-05	    9.385868E+02	
   -1.904634E-03	    5.681345E-03	    4.318950E-02	   -1.000000E+00	    1.600063E-03	    1.600000E-03	    8.010000E+02	    3.523114E-07	    7.994613E-05	    1.817621E+05	    1.392821E+06	    1.000000E+00	    2.965125E-05	    9.388315E+02	
   -1.385727E-03	    5.752083E-03	    4.369741E-02	   -1.000000E+00	    1.600067E-03	    1.600000E-03	    8.010000E+02	    3.708915E-07	    8.210265E-05	    1.773139E+05	    1.390746E+06	    1.000000E+00	    3.002089E-05	    9.390396E+02	
   -9.253923E-04	    5.795952E-03	    4.401209E-02	   -1.000000E+00	    1.600069E-03	    1.600000E-03	    8.010000E+02	    3.827883E-07	    8.345684E-05	    1.746368E+05	    1.389463E+06	    1.000000E+00	    3.025013E-05	    9.391721E+02	
   -5.201211E-04	    5.820040E-03	    4.418437E-02	   -1.000000E+00	    1.600070E-03	    1.600000E-03	    8.010000E+02	    3.894375E-07	    8.420432E-05	    1.731925E+05	    1.388733E+06	    1.000000E+00	    3.037601E-05	    9.392280E+02	
   -1.653597E-04	    5.830026E-03	    4.425491E-02	   -1.000000E+00	    1.600071E-03	    1.600000E-03	    8.010000E+02	    3.922040E-07	    8.451189E-05	    1.725990E+05	    1.388378E+06	    1.000000E+00	    3.042819E-05	    9.392145E+02	
    1.653597E-04	    5.830026E-03	    4.425491E-02	   -1.000000E+00	    1.600071E-03	    1.600000E-03	    8.010000E+02	    3.922040E-07	    8.451189E-05	    1.725990E+05	    1.388378E+06	    1.000000E+00	    3.042819E-05	    9.392145E+02	
    5.201211E-04	    5.820040E-03	    4.418437E-02	   -1.000000E+00	    1.600070E-03	    1.600000E-03	    8.010000E+02	    3.894375E-07	    8.420432E-05	    1.731925E+05	    1.388733E+06	    1.000000E+00	    3.037601E-05	    9.392280E+02	
    9.253923E-04	    5.795952E-03	    4.401209E-02	   -1.000000E+00	    1.600069E-03	    1.600000E-03	    8.010000E+02	    3.827883E-07	    8.345684E-05	    1.746368E+05	    1.389463E+06	    1.000000E+00	    3.025013E-05	    9.391721E+02	
    1.385727E-03	    5.752083E-03	    4.369741E-02	   -1.000000E+00	    1.600067E-03	    1.600000E-03	    8.010000E+02	    3.708915E-07	    8.210265E-05	    1.773139E+05	    1.390746E+06	    1.000000E+00	    3.002089E-05	    9.390396E+02	
    1.904634E-03	    5.681345E-03	    4.318950E-02	   -1.000000E+00	    1.600063E-03	    1.600000E-03	    8.010000E+02	    3.523114E-07	    7.994613E-05	    1.817621E+05	    1.392821E+06	    1.000000E+00	    2.965125E-05	    9.388315E+02	
    2.483725E-03	    5.575283E-03	    4.242800E-02	   -1.000000E+00	    1.600059E-03	    1.600000E-03	    8.010000E+02	    3.258273E-07	    7.677957E-05	    1.887516E+05	    1.396025E+06	    1.000000E+00	    2.909704E-05	    9.385868E+02	
    3.121627E-03	    5.424432E-03	    4.134644E-02	   -1.000000E+00	    1.600052E-03	    1.600000E-03	    8.010000E+02	    2.908942E-07	    7.241784E-05	    1.994082E+05	    1.400886E+06	    1.000000E+00	    2.830884E-05	    9.384549E+02	
    3.812769E-03	    5.219153E-03	    3.987843E-02	   -1.000000E+00	    1.600045E-03	    1.600000E-03	    8.010000E+02	    2.481969E-07	    6.675014E-05	    2.154211E+05	    1.408197E+06	    1.000000E+00	    2.723634E-05	    9.387790E+02	
    4.546286E-03	    4.951095E-03	    3.791361E-02	   -1.000000E+00	    1.600036E-03	    1.600000E-03	    8.010000E+02	    1.992537E-07	    5.955361E-05	    2.394056E+05	    1.415020E+06	    1.000000E+00	    2.583598E-05	    9.369061E+02	
    5.305455E-03	    4.615253E-03	    3.544210E-02	   -1.000000E+00	    1.600027E-03	    1.600000E-03	    8.010000E+02	    1.487676E-07	    5.117789E-05	    2.755539E+05	    1.423803E+06	    1.000000E+00	    2.408174E-05	    9.345048E+02	
    6.068172E-03	    4.212355E-03	    3.248449E-02	   -1.000000E+00	    1.600018E-03	    1.600000E-03	    8.010000E+02	    1.020155E-07	    4.213615E-05	    3.308425E+05	    1.436709E+06	    1.000000E+00	    2.197758E-05	    9.331269E+02	
    6.808838E-03	    3.750861E-03	    2.910711E-02	   -1.000000E+00	    1.600011E-03	    1.600000E-03	    8.010000E+02	    6.346914E-08	    3.306923E-05	    4.173438E+05	    1.455789E+06	    1.000000E+00	    1.956784E-05	    9.343774E+02	
    7.501609E-03	    3.247671E-03	    2.537829E-02	   -1.000000E+00	    1.600006E-03	    1.600000E-03	    8.010000E+02	    3.526373E-08	    2.451323E-05	    5.568071E+05	    1.477244E+06	    1.000000E+00	    1.694092E-05	    9.358050E+02	
    8.124294E-03	    2.726734E-03	    2.148960E-02	   -1.000000E+00	    1.600003E-03	    1.600000E-03	    8.010000E+02	    1.735186E-08	    1.711486E-05	    7.900594E+05	    1.503681E+06	    1.000000E+00	    1.422195E-05	    9.394927E+02	
    8.661707E-03	    2.215505E-03	    1.764494E-02	   -1.000000E+00	    1.600001E-03	    1.600000E-03	    8.010000E+02	    7.522961E-09	    1.124219E-05	    1.197002E+06	    1.536672E+06	    1.000000E+00	    1.155424E-05	    9.472390E+02	
    9.107368E-03	    1.740152E-03	    1.404332E-02	   -1.000000E+00	    1.600001E-03	    1.600000E-03	    8.010000E+02	    2.869372E-09	    6.951981E-06	    1.940681E+06	    1.578805E+06	    1.000000E+00	    9.074269E-06	    9.611640E+02	
    9.463130E-03	    1.321072E-03	    1.082940E-02	   -1.000000E+00	    1.600000E-03	    1.600000E-03	    8.010000E+02	    9.628465E-10	    4.048349E-06	    3.367855E+06	    1.629895E+06	    1.000000E+00	    6.888300E-06	    9.815585E+02	
    9.737196E-03	    9.701384E-04	    8.102555E-03	   -1.000000E+00	    1.600000E-03	    1.600000E-03	    8.010000E+02	    2.857203E-10	    2.227989E-06	    6.246034E+06	    1.692694E+06	    1.000000E+00	    5.058090E-06	    1.010420E+03	
    9.941473E-03	    6.902772E-04	    5.896739E-03	   -1.000000E+00	    1.600000E-03	    1.600000E-03	    8.010000E+02	    7.562605E-11	    1.164972E-06	    1.233891E+07	    1.771474E+06	    1.000000E+00	    3.598739E-06	    1.050427E+03	
    1.008914E-02	    4.770323E-04	    4.173817E-03	   -1.000000E+00	    1.600000E-03	    1.600000E-03	    8.010000E+02	    1.792912E-11	    5.783547E-07	    2.583853E+07	    1.858856E+06	    1.000000E+00	    2.486880E-06	    1.097028E+03	
    1.019289E-02	    3.211888E-04	    2.866431E-03	   -1.000000E+00	    1.600000E-03	    1.600000E-03	    8.010000E+02	    3.809929E-12	    2.711165E-07	    5.699958E+07	    1.934279E+06	    1.000000E+00	    1.674376E-06	    1.137916E+03	
    1.026387E-02	    2.114870E-04	    1.892167E-03	   -1.000000E+00	    1.600000E-03	    1.600000E-03	    8.010000E+02	    7.168860E-13	    1.176693E-07	    1.314757E+08	    1.944306E+06	    1.000000E+00	    1.102468E-06	    1.141447E+03	
    1.031127E-02	    1.367639E-04	    1.175229E-03	   -1.000000E+00	    1.600000E-03	    1.600000E-03	    8.010000E+02	    1.154006E-13	    4.529593E-08	    3.144007E+08	    1.793707E+06	    1.000000E+00	    7.129301E-07	    1.051852E+03	
    1.034225E-02	    8.727024E-05	    6.506855E-04	   -1.000000E+00	    1.600000E-03	    1.600000E-03	    8.010000E+02	    1.438108E-14	    1.386317E-08	    7.721535E+08	    1.350481E+06	    1.000000E+00	    4.549220E-07	    7.912712E+02	
    1.036213E-02	    5.522601E-05	    2.578478E-04	   -1.000000E+00	    1.600000E-03	    1.600000E-03	    8.010000E+02	    2.891387E-15	    6.960304E-09	    1.928211E+09	    5.297493E+05	    1.000000E+00	    2.878800E-07	    5.548192E+02	
    1.036914E-02	    4.386592E-05	    0.000000E+00	    0.000000E+00	    1.000000E-03	    1.000000E-03	    1.000000E+03	    0.000000E+00	    0.000000E+00	    8.964921E+05	    0.000000E+00	    1.000000E+00	    0.000000E+00	    0.000000E+00	
   -1.036869E-02	    4.358580E-05	    0.000000E+00	    0.000000E+00	    1.000000E-03	    1.000000E-03	    1.000000E+03	    0.000000E+00	    0.000000E+00	    8.964921E+05	    0.000000E+00	    1.000000E+00	    0.000000E+00	    0.000000E+00	
   -1.036156E-02	    5.487274E-05	    6.307295E-04	   -1.000000E+00	    1.600000E-03	    1.600000E-03	    8.010000E+02	    9.462016E-11	    1.059004E-07	    8.964921E+05	    3.145048E+05	    1.000000E+00	    9.541054E-07	    2.461262E+00	
   -1.034135E-02	    8.670925E-05	    1.591681E-03	   -1.000000E+00	    1.600000E-03	    1.600000E-03	    8.010000E+02	    1.583977E-14	    2.127589E-09	    1.075898E+08	    7.992162E+05	    6.112718E-04	    1.507700E-06	    1.265940E-08	
   -1.030987E-02	    1.358782E-04	    2.874718E-03	   -1.000000E+00	    1.600000E-03	    1.600000E-03	    8.010000E+02	    1.499377E-13	    8.204520E-09	    4.383033E+07	    1.061225E+06	    8.951210E-03	    2.362732E-06	    1.591176E-07	
   -1.026172E-02	    2.101018E-04	    4.628148E-03	   -1.000000E+00	    1.600000E-03	    1.600000E-03	    8.010000E+02	    1.072980E-12	    2.562392E-08	    1.912875E+07	    1.150116E+06	    1.000000E+00	    3.653570E-06	    1.234051E-06	
   -1.018965E-02	    3.190505E-04	    7.010479E-03	   -1.000000E+00	    1.600000E-03	    1.600000E-03	    8.010000E+02	    7.479215E-12	    7.744428E-08	    8.294035E+06	    1.143920E+06	    1.000000E+00	    5.548567E-06	    8.555624E-06	
   -1.008439E-02	    4.737836E-04	    1.020650E-02	   -1.000000E+00	    1.600000E-03	    1.600000E-03	    8.010000E+02	    4.799125E-11	    2.253014E-07	    3.760402E+06	    1.098949E+06	    1.000000E+00	    8.240419E-06	    5.273991E-05	
   -9.934703E-03	    6.854320E-04	    1.441671E-02	   -1.000000E+00	    1.600000E-03	    1.600000E-03	    8.010000E+02	    2.826819E-10	    6.338804E-07	    1.796147E+06	    1.046795E+06	    1.000000E+00	    1.192338E-05	    2.959098E-04	
   -9.727880E-03	    9.630628E-04	    1.980416E-02	   -1.000000E+00	    1.600000E-03	    1.600000E-03	    8.010000E+02	    1.491896E-09	    1.693968E-06	    9.094924E+05	    9.995988E+05	    1.000000E+00	    1.675620E-05	    1.491298E-03	
   -9.450806E-03	    1.310983E-03	    2.645983E-02	   -1.000000E+00	    1.600001E-03	    1.600000E-03	    8.010000E+02	    6.907128E-09	    4.230336E-06	    4.905801E+05	    9.617163E+05	    1.000000E+00	    2.281528E-05	    6.642697E-03	
   -9.091751E-03	    1.726149E-03	    3.429793E-02	   -1.000000E+00	    1.600005E-03	    1.600000E-03	    8.010000E+02	    2.739986E-08	    9.674263E-06	    2.828148E+05	    9.306006E+05	    1.000000E+00	    3.004939E-05	    2.549832E-02	
   -8.642806E-03	    2.196648E-03	    4.307309E-02	   -1.000000E+00	    1.600017E-03	    1.600000E-03	    8.010000E+02	    9.208629E-08	    2.006397E-05	    1.745237E+05	    9.045966E+05	    1.000000E+00	    3.825285E-05	    8.330095E-02	
   -8.102486E-03	    2.702166E-03	    5.243035E-02	   -1.000000E+00	    1.600047E-03	    1.600000E-03	    8.010000E+02	    2.622731E-07	    3.773605E-05	    1.152485E+05	    8.837580E+05	    1.000000E+00	    4.707303E-05	    2.317860E-01	
   -7.477637E-03	    3.216759E-03	    6.188377E-02	   -1.000000E+00	    1.600114E-03	    1.600000E-03	    8.010000E+02	    6.351410E-07	    6.443420E-05	    8.126037E+04	    8.664472E+05	    1.000000E+00	    5.605814E-05	    5.503161E-01	
   -6.783721E-03	    3.713322E-03	    7.093755E-02	   -1.000000E+00	    1.600237E-03	    1.600000E-03	    8.010000E+02	    1.314800E-06	    1.000130E-04	    6.092978E+04	    8.516391E+05	    1.000000E+00	    6.473468E-05	    1.119735E+00	
   -6.043044E-03	    4.168305E-03	    7.912732E-02	   -1.000000E+00	    1.600425E-03	    1.600000E-03	    8.010000E+02	    2.358845E-06	    1.422777E-04	    4.831366E+04	    8.377669E+05	    1.000000E+00	    7.269013E-05	    1.976162E+00	
   -5.281394E-03	    4.565182E-03	    8.629127E-02	   -1.000000E+00	    1.600676E-03	    1.600000E-03	    8.010000E+02	    3.753002E-06	    1.885664E-04	    4.024557E+04	    8.271938E+05	    1.000000E+00	    7.963384E-05	    3.104460E+00	
   -4.524175E-03	    4.895764E-03	    9.227162E-02	   -1.000000E+00	    1.600967E-03	    1.600000E-03	    8.010000E+02	    5.372015E-06	    2.345163E-04	    3.496780E+04	    8.189413E+05	    1.000000E+00	    8.542068E-05	    4.399365E+00	
   -3.793227E-03	    5.159469E-03	    9.702137E-02	   -1.000000E+00	    1.601264E-03	    1.600000E-03	    8.010000E+02	    7.023239E-06	    2.758831E-04	    3.146445E+04	    8.120390E+05	    1.000000E+00	    9.003879E-05	    5.703144E+00	
   -3.105001E-03	    5.361319E-03	    1.005658E-01	   -1.000000E+00	    1.601531E-03	    1.600000E-03	    8.010000E+02	    8.503675E-06	    3.091987E-04	    2.912483E+04	    8.052845E+05	    1.000000E+00	    9.357487E-05	    6.847878E+00	