Title="Fields"
Variables="X""Y""Velocity""Phi""Effective Viscosity""Dynamic Viscosity""Density""Eddy Viscosity""K""Epsilon""S"
Zone I=52 J=52 F=POINT
   -2.631798E-02	    1.224259E-04	    0.000000E+00	    0.000000E+00	    1.000000E-03	    1.000000E-03	    1.000000E+03	    0.000000E+00	    0.000000E+00	    0.000000E+00	    0.000000E+00	
   -2.632954E-02	    1.543029E-04	    0.000000E+00	    0.000000E+00	    1.000000E-03	    1.000000E-03	    1.000000E+03	    0.000000E+00	    0.000000E+00	    0.000000E+00	    0.000000E+00	
   -2.636203E-02	    2.446057E-04	    0.000000E+00	    0.000000E+00	    1.000000E-03	    1.000000E-03	    1.000000E+03	    0.000000E+00	    0.000000E+00	    0.000000E+00	    0.000000E+00	
   -2.641194E-02	    3.852088E-04	    0.000000E+00	    0.000000E+00	    1.000000E-03	    1.000000E-03	    1.000000E+03	    0.000000E+00	    0.000000E+00	    0.000000E+00	    0.000000E+00	
   -2.648660E-02	    6.001159E-04	    0.000000E+00	    0.000000E+00	    1.000000E-03	    1.000000E-03	    1.000000E+03	    0.000000E+00	    0.000000E+00	    0.000000E+00	    0.000000E+00	
   -2.659461E-02	    9.214953E-04	    0.000000E+00	    0.000000E+00	    1.000000E-03	    1.000000E-03	    1.000000E+03	    0.000000E+00	    0.000000E+00	    0.000000E+00	    0.000000E+00	
   -2.674452E-02	    1.390480E-03	    0.000000E+00	    0.000000E+00	    1.000000E-03	    1.000000E-03	    1.000000E+03	    0.000000E+00	    0.000000E+00	    0.000000E+00	    0.000000E+00	
   -2.694210E-02	    2.057030E-03	    0.000000E+00	    0.000000E+00	    1.000000E-03	    1.000000E-03	    1.000000E+03	    0.000000E+00	    0.000000E+00	    0.000000E+00	    0.000000E+00	
   -2.718596E-02	    2.978385E-03	    0.000000E+00	    0.000000E+00	    1.000000E-03	    1.000000E-03	    1.000000E+03	    0.000000E+00	    0.000000E+00	    0.000000E+00	    0.000000E+00	
   -2.746143E-02	    4.215519E-03	    0.000000E+00	    0.000000E+00	    1.000000E-03	    1.000000E-03	    1.000000E+03	    0.000000E+00	    0.000000E+00	    0.000000E+00	    0.000000E+00	
   -2.773349E-02	    5.826866E-03	    0.000000E+00	    0.000000E+00	    1.000000E-03	    1.000000E-03	    1.000000E+03	    0.000000E+00	    0.000000E+00	    0.000000E+00	    0.000000E+00	
   -2.794064E-02	    7.858536E-03	    0.000000E+00	    0.000000E+00	    1.000000E-03	    1.000000E-03	    1.000000E+03	    0.000000E+00	    0.000000E+00	    0.000000E+00	    0.000000E+00	
   -2.799246E-02	    1.033081E-02	    0.000000E+00	    0.000000E+00	    1.000000E-03	    1.000000E-03	    1.000000E+03	    0.000000E+00	    0.000000E+00	    0.000000E+00	    0.000000E+00	
   -2.777513E-02	    1.322239E-02	    0.000000E+00	    0.000000E+00	    1.000000E-03	    1.000000E-03	    1.000000E+03	    0.000000E+00	    0.000000E+00	    0.000000E+00	    0.000000E+00	
   -2.716773E-02	    1.645688E-02	    0.000000E+00	    0.000000E+00	    1.000000E-03	    1.000000E-03	    1.000000E+03	    0.000000E+00	    0.000000E+00	    0.000000E+00	    0.000000E+00	
   -2.606901E-02	    1.989884E-02	    0.000000E+00	    0.000000E+00	    1.000000E-03	    1.000000E-03	    1.000000E+03	    0.000000E+00	    0.000000E+00	    0.000000E+00	    0.000000E+00	
   -2.442762E-02	    2.336632E-02	    0.000000E+00	    0.000000E+00	    1.000000E-03	    1.000000E-03	    1.000000E+03	    0.000000E+00	    0.000000E+00	    0.000000E+00	    0.000000E+00	
   -2.226370E-02	    2.666109E-02	    0.000000E+00	    0.000000E+00	    1.000000E-03	    1.000000E-03	    1.000000E+03	    0.000000E+00	    0.000000E+00	    0.000000E+00	    0.000000E+00	
   -1.967025E-02	    2.960777E-02	    0.000000E+00	    0.000000E+00	    1.000000E-03	    1.000000E-03	    1.000000E+03	    0.000000E+00	    0.000000E+00	    0.000000E+00	    0.000000E+00	
   -1.679243E-02	    3.208655E-02	    0.000000E+00	    0.000000E+00	    1.000000E-03	    1.000000E-03	    1.000000E+03	    0.000000E+00	    0.000000E+00	    0.000000E+00	    0.000000E+00	
   -1.379383E-02	    3.404745E-02	    0.000000E+00	    0.000000E+00	    1.000000E-03	    1.000000E-03	    1.000000E+03	    0.000000E+00	    0.000000E+00	    0.000000E+00	    0.000000E+00	
   -1.082434E-02	    3.550400E-02	    0.000000E+00	    0.000000E+00	    1.000000E-03	    1.000000E-03	    1.000000E+03	    0.000000E+00	    0.000000E+00	    0.000000E+00	    0.000000E+00	
   -7.999687E-03	    3.651378E-02	    0.000000E+00	    0.000000E+00	    1.000000E-03	    1.000000E-03	    1.000000E+03	    0.000000E+00	    0.000000E+00	    0.000000E+00	    0.000000E+00	
   -5.395058E-03	    3.715620E-02	    0.000000E+00	    0.000000E+00	    1.000000E-03	    1.000000E-03	    1.000000E+03	    0.000000E+00	    0.000000E+00	    0.000000E+00	    0.000000E+00	
   -3.048878E-03	    3.751439E-02	    0.000000E+00	    0.000000E+00	    1.000000E-03	    1.000000E-03	    1.000000E+03	    0.000000E+00	    0.000000E+00	    0.000000E+00	    0.000000E+00	
   -9.715152E-04	    3.766401E-02	    0.000000E+00	    0.000000E+00	    1.000000E-03	    1.000000E-03	    1.000000E+03	    0.000000E+00	    0.000000E+00	    0.000000E+00	    0.000000E+00	
    9.715152E-04	    3.766401E-02	    0.000000E+00	    0.000000E+00	    1.000000E-03	    1.000000E-03	    1.000000E+03	    0.000000E+00	    0.000000E+00	    0.000000E+00	    0.000000E+00	
    3.048878E-03	    3.751439E-02	    0.000000E+00	    0.000000E+00	    1.000000E-03	    1.000000E-03	    1.000000E+03	    0.000000E+00	    0.000000E+00	    0.000000E+00	    0.000000E+00	
    5.395058E-03	    3.715620E-02	    0.000000E+00	    0.000000E+00	    1.000000E-03	    1.000000E-03	    1.000000E+03	    0.000000E+00	    0.000000E+00	    0.000000E+00	    0.000000E+00	
    7.999687E-03	    3.651378E-02	    0.000000E+00	    0.000000E+00	    1.000000E-03	    1.000000E-03	    1.000000E+03	    0.000000E+00	    0.000000E+00	    0.000000E+00	    0.000000E+00	
    1.082434E-02	    3.550400E-02	    0.000000E+00	    0.000000E+00	    1.000000E-03	    1.000000E-03	    1.000000E+03	    0.000000E+00	    0.000000E+00	    0.000000E+00	    0.000000E+00	
    1.379383E-02	    3.404745E-02	    0.000000E+00	    0.000000E+00	    1.000000E-03	    1.000000E-03	    1.000000E+03	    0.000000E+00	    0.000000E+00	    0.000000E+00	    0.000000E+00	
    1.679243E-02	    3.208655E-02	    0.000000E+00	    0.000000E+00	    1.000000E-03	    1.000000E-03	    1.000000E+03	    0.000000E+00	    0.000000E+00	    0.000000E+00	    0.000000E+00	
    1.967025E-02	    2.960777E-02	    0.000000E+00	    0.000000E+00	    1.000000E-03	    1.000000E-03	    1.000000E+03	    0.000000E+00	    0.000000E+00	    0.000000E+00	    0.000000E+00	
    2.226370E-02	    2.666109E-02	    0.000000E+00	    0.000000E+00	    1.000000E-03	    1.000000E-03	    1.000000E+03	    0.000000E+00	    0.000000E+00	    0.000000E+00	    0.000000E+00	
    2.442762E-02	    2.336632E-02	    0.000000E+00	    0.000000E+00	    1.000000E-03	    1.000000E-03	    1.000000E+03	    0.000000E+00	    0.000000E+00	    0.000000E+00	    0.000000E+00	
    2.606901E-02	    1.989884E-02	    0.000000E+00	    0.000000E+00	    1.000000E-03	    1.000000E-03	    1.000000E+03	    0.000000E+00	    0.000000E+00	    0.000000E+00	    0.000000E+00	
    2.716773E-02	    1.645688E-02	    0.000000E+00	    0.000000E+00	    1.000000E-03	    1.000000E-03	    1.000000E+03	    0.000000E+00	    0.000000E+00	    0.000000E+00	    0.000000E+00	
    2.777513E-02	    1.322239E-02	    0.000000E+00	    0.000000E+00	    1.000000E-03	    1.000000E-03	    1.000000E+03	    0.000000E+00	    0.000000E+00	    0.000000E+00	    0.000000E+00	
    2.799246E-02	    1.033081E-02	    0.000000E+00	    0.000000E+00	    1.000000E-03	    1.000000E-03	    1.000000E+03	    0.000000E+00	    0.000000E+00	    0.000000E+00	    0.000000E+00	
    2.794064E-02	    7.858536E-03	    0.000000E+00	    0.000000E+00	    1.000000E-03	    1.000000E-03	    1.000000E+03	    0.000000E+00	    0.000000E+00	    0.000000E+00	    0.000000E+00	
    2.773349E-02	    5.826866E-03	    0.000000E+00	    0.000000E+00	    1.000000E-03	    1.000000E-03	    1.000000E+03	    0.000000E+00	    0.000000E+00	    0.000000E+00	    0.000000E+00	
    2.746143E-02	    4.215519E-03	    0.000000E+00	    0.000000E+00	    1.000000E-03	    1.000000E-03	    1.000000E+03	    0.000000E+00	    0.000000E+00	    0.000000E+00	    0.000000E+00	
    2.718596E-02	    2.978385E-03	    0.000000E+00	    0.000000E+00	    1.000000E-03	    1.000000E-03	    1.000000E+03	    0.000000E+00	    0.000000E+00	    0.000000E+00	    0.000000E+00	
    2.694210E-02	    2.057030E-03	    0.000000E+00	    0.000000E+00	    1.000000E-03	    1.000000E-03	    1.000000E+03	    0.000000E+00	    0.000000E+00	    0.000000E+00	    0.000000E+00	
    2.674452E-02	    1.390480E-03	    0.000000E+00	    0.000000E+00	    1.000000E-03	    1.000000E-03	    1.000000E+03	    0.000000E+00	    0.000000E+00	    0.000000E+00	    0.000000E+00	
    2.659461E-02	    9.214953E-04	    0.000000E+00	    0.000000E+00	    1.000000E-03	    1.000000E-03	    1.000000E+03	    0.000000E+00	    0.000000E+00	    0.000000E+00	    0.000000E+00	
    2.648660E-02	    6.001159E-04	    0.000000E+00	    0.000000E+00	    1.000000E-03	    1.000000E-03	    1.000000E+03	    0.000000E+00	    0.000000E+00	    0.000000E+00	    0.000000E+00	
    2.641194E-02	    3.852088E-04	    0.000000E+00	    0.000000E+00	    1.000000E-03	    1.000000E-03	    1.000000E+03	    0.000000E+00	    0.000000E+00	    0.000000E+00	    0.000000E+00	
    2.636203E-02	    2.446057E-04	    0.000000E+00	    0.000000E+00	    1.000000E-03	    1.000000E-03	    1.000000E+03	    0.000000E+00	    0.000000E+00	    0.000000E+00	    0.000000E+00	
    2.632954E-02	    1.543029E-04	    0.000000E+00	    0.000000E+00	    1.000000E-03	    1.000000E-03	    1.000000E+03	    0.000000E+00	    0.000000E+00	    0.000000E+00	    0.000000E+00	
    2.631798E-02	    1.224259E-04	    0.000000E+00	    0.000000E+00	    1.000000E-03	    1.000000E-03	    1.000000E+03	    0.000000E+00	    0.000000E+00	    0.000000E+00	    0.000000E+00	
   -2.631696E-02	    1.227928E-04	    0.000000E+00	    0.000000E+00	    1.000000E-03	    1.000000E-03	    1.000000E+03	    0.000000E+00	    0.000000E+00	    0.000000E+00	    0.000000E+00	
   -2.632824E-02	    1.547638E-04	    4.059624E-04	   -1.000000E+00	    1.641845E-03	    1.640000E-03	    7.900000E+02	    1.024764E-05	    1.776478E-03	    2.189601E+01	    5.637213E+04	
   -2.635999E-02	    2.453293E-04	    9.570592E-04	   -1.000000E+00	    1.642095E-03	    1.640000E-03	    7.900000E+02	    1.163734E-05	    9.116898E-04	    5.078203E+00	    1.255862E+05	
   -2.640871E-02	    3.863311E-04	    1.722875E-03	   -1.000000E+00	    1.643803E-03	    1.640000E-03	    7.900000E+02	    2.112859E-05	    1.211827E-03	    4.941748E+00	    1.639645E+05	
   -2.648155E-02	    6.018232E-04	    2.815410E-03	   -1.000000E+00	    1.646836E-03	    1.640000E-03	    7.900000E+02	    3.797891E-05	    1.613379E-03	    4.873038E+00	    1.801430E+05	
   -2.658683E-02	    9.240226E-04	    4.361760E-03	   -1.000000E+00	    1.651672E-03	    1.640000E-03	    7.900000E+02	    6.484425E-05	    1.994907E-03	    4.363585E+00	    1.829371E+05	
   -2.673271E-02	    1.394086E-03	    6.538718E-03	   -1.000000E+00	    1.659116E-03	    1.640000E-03	    7.900000E+02	    1.061976E-04	    2.350340E-03	    3.698420E+00	    1.798501E+05	
   -2.692451E-02	    2.061928E-03	    9.560827E-03	   -1.000000E+00	    1.670168E-03	    1.640000E-03	    7.900000E+02	    1.676019E-04	    2.675464E-03	    3.036610E+00	    1.745513E+05	
   -2.716026E-02	    2.984603E-03	    1.366124E-02	   -1.000000E+00	    1.685960E-03	    1.640000E-03	    7.900000E+02	    2.553324E-04	    2.962785E-03	    2.444352E+00	    1.681369E+05	
   -2.742470E-02	    4.222662E-03	    1.906920E-02	   -1.000000E+00	    1.707665E-03	    1.640000E-03	    7.900000E+02	    3.759192E-04	    3.207061E-03	    1.945313E+00	    1.606074E+05	
   -2.768225E-02	    5.833758E-03	    2.598190E-02	   -1.000000E+00	    1.736410E-03	    1.640000E-03	    7.900000E+02	    5.356126E-04	    3.409366E-03	    1.543000E+00	    1.518262E+05	
   -2.787105E-02	    7.862766E-03	    3.452713E-02	   -1.000000E+00	    1.773136E-03	    1.640000E-03	    7.900000E+02	    7.396461E-04	    3.576732E-03	    1.229754E+00	    1.420419E+05	
   -2.790088E-02	    1.032828E-02	    4.471225E-02	   -1.000000E+00	    1.818322E-03	    1.640000E-03	    7.900000E+02	    9.906796E-04	    3.715864E-03	    9.909595E-01	    1.318699E+05	
   -2.765894E-02	    1.320705E-02	    5.637157E-02	   -1.000000E+00	    1.871598E-03	    1.640000E-03	    7.900000E+02	    1.286656E-03	    3.829697E-03	    8.104684E-01	    1.220019E+05	
   -2.702643E-02	    1.642100E-02	    6.912841E-02	   -1.000000E+00	    1.931434E-03	    1.640000E-03	    7.900000E+02	    1.619080E-03	    3.918725E-03	    6.743587E-01	    1.129750E+05	
   -2.590524E-02	    1.983387E-02	    8.240007E-02	   -1.000000E+00	    1.995095E-03	    1.640000E-03	    7.900000E+02	    1.972750E-03	    3.983497E-03	    5.719084E-01	    1.051024E+05	
   -2.424762E-02	    2.326456E-02	    9.546976E-02	   -1.000000E+00	    2.058972E-03	    1.640000E-03	    7.900000E+02	    2.327621E-03	    4.026197E-03	    4.951619E-01	    9.850343E+04	
   -2.207670E-02	    2.651743E-02	    1.076172E-01	   -1.000000E+00	    2.119261E-03	    1.640000E-03	    7.900000E+02	    2.662561E-03	    4.050841E-03	    4.381880E-01	    9.316282E+04	
   -1.948695E-02	    2.942092E-02	    1.182610E-01	   -1.000000E+00	    2.172746E-03	    1.640000E-03	    7.900000E+02	    2.959698E-03	    4.062453E-03	    3.964596E-01	    8.898217E+04	
   -1.662298E-02	    3.185920E-02	    1.270552E-01	   -1.000000E+00	    2.217368E-03	    1.640000E-03	    7.900000E+02	    3.207601E-03	    4.065913E-03	    3.664423E-01	    8.581766E+04	
   -1.364622E-02	    3.378538E-02	    1.339090E-01	   -1.000000E+00	    2.252405E-03	    1.640000E-03	    7.900000E+02	    3.402248E-03	    4.065125E-03	    3.453437E-01	    8.350637E+04	
   -1.070360E-02	    3.521459E-02	    1.389403E-01	   -1.000000E+00	    2.278268E-03	    1.640000E-03	    7.900000E+02	    3.545932E-03	    4.062715E-03	    3.309572E-01	    8.188519E+04	
   -7.907952E-03	    3.620466E-02	    1.423972E-01	   -1.000000E+00	    2.296111E-03	    1.640000E-03	    7.900000E+02	    3.645060E-03	    4.060164E-03	    3.215527E-01	    8.080341E+04	
   -5.332115E-03	    3.683420E-02	    1.445812E-01	   -1.000000E+00	    2.307420E-03	    1.640000E-03	    7.900000E+02	    3.707889E-03	    4.058134E-03	    3.157881E-01	    8.013005E+04	
   -3.012969E-03	    3.718510E-02	    1.457910E-01	   -1.000000E+00	    2.313705E-03	    1.640000E-03	    7.900000E+02	    3.742805E-03	    4.056795E-03	    3.126357E-01	    7.975645E+04	
   -9.600277E-04	    3.733167E-02	    1.462896E-01	   -1.000000E+00	    2.316316E-03	    1.640000E-03	    7.900000E+02	    3.757311E-03	    4.056074E-03	    3.113179E-01	    7.959554E+04	
    9.600277E-04	    3.733167E-02	    1.462896E-01	   -1.000000E+00	    2.316316E-03	    1.640000E-03	    7.900000E+02	    3.757311E-03	    4.056074E-03	    3.113179E-01	    7.959554E+04	
    3.012969E-03	    3.718510E-02	    1.457910E-01	   -1.000000E+00	    2.313705E-03	    1.640000E-03	    7.900000E+02	    3.742805E-03	    4.056795E-03	    3.126357E-01	    7.975645E+04	
    5.332115E-03	    3.683420E-02	    1.445812E-01	   -1.000000E+00	    2.307420E-03	    1.640000E-03	    7.900000E+02	    3.707889E-03	    4.058134E-03	    3.157881E-01	    8.013005E+04	
    7.907952E-03	    3.620466E-02	    1.423972E-01	   -1.000000E+00	    2.296111E-03	    1.640000E-03	    7.900000E+02	    3.645060E-03	    4.060164E-03	    3.215527E-01	    8.080341E+04	
    1.070360E-02	    3.521459E-02	    1.389403E-01	   -1.000000E+00	    2.278268E-03	    1.640000E-03	    7.900000E+02	    3.545932E-03	    4.062715E-03	    3.309572E-01	    8.188519E+04	
    1.364622E-02	    3.378538E-02	    1.339090E-01	   -1.000000E+00	    2.252405E-03	    1.640000E-03	    7.900000E+02	    3.402248E-03	    4.065125E-03	    3.453437E-01	    8.350637E+04	
    1.662298E-02	    3.185920E-02	    1.270552E-01	   -1.000000E+00	    2.217368E-03	    1.640000E-03	    7.900000E+02	    3.207601E-03	    4.065913E-03	    3.664423E-01	    8.581766E+04	
    1.948695E-02	    2.942092E-02	    1.182610E-01	   -1.000000E+00	    2.172746E-03	    1.640000E-03	    7.900000E+02	    2.959698E-03	    4.062453E-03	    3.964596E-01	    8.898217E+04	
    2.207670E-02	    2.651743E-02	    1.076172E-01	   -1.000000E+00	    2.119261E-03	    1.640000E-03	    7.900000E+02	    2.662561E-03	    4.050841E-03	    4.381880E-01	    9.316282E+04	
    2.424762E-02	    2.326456E-02	    9.546976E-02	   -1.000000E+00	    2.058972E-03	    1.640000E-03	    7.900000E+02	    2.327621E-03	    4.026197E-03	    4.951619E-01	    9.850343E+04	
    2.590524E-02	    1.983387E-02	    8.240007E-02	   -1.000000E+00	    1.995095E-03	    1.640000E-03	    7.900000E+02	    1.972750E-03	    3.983497E-03	    5.719084E-01	    1.051024E+05	
    2.702643E-02	    1.642100E-02	    6.912841E-02	   -1.000000E+00	    1.931434E-03	    1.640000E-03	    7.900000E+02	    1.619080E-03	    3.918725E-03	    6.743587E-01	    1.129750E+05	
    2.765894E-02	    1.320705E-02	    5.637157E-02	   -1.000000E+00	    1.871598E-03	    1.640000E-03	    7.900000E+02	    1.286656E-03	    3.829697E-03	    8.104684E-01	    1.220019E+05	
    2.790088E-02	    1.032828E-02	    4.471225E-02	   -1.000000E+00	    1.818322E-03	    1.640000E-03	    7.900000E+02	    9.906796E-04	    3.715864E-03	    9.909595E-01	    1.318699E+05	
    2.787105E-02	    7.862766E-03	    3.452713E-02	   -1.000000E+00	    1.773136E-03	    1.640000E-03	    7.900000E+02	    7.396461E-04	    3.576732E-03	    1.229754E+00	    1.420419E+05	
    2.768225E-02	    5.833758E-03	    2.598190E-02	   -1.000000E+00	    1.736410E-03	    1.640000E-03	    7.900000E+02	    5.356126E-04	    3.409366E-03	    1.543000E+00	    1.518262E+05	
    2.742470E-02	    4.222662E-03	    1.906920E-02	   -1.000000E+00	    1.707665E-03	    1.640000E-03	    7.900000E+02	    3.759192E-04	    3.207061E-03	    1.945313E+00	    1.606074E+05	
    2.716026E-02	    2.984603E-03	    1.366124E-02	   -1.000000E+00	    1.685960E-03	    1.640000E-03	    7.900000E+02	    2.553324E-04	    2.962785E-03	    2.444352E+00	    1.681369E+05	
    2.692451E-02	    2.061928E-03	    9.560827E-03	   -1.000000E+00	    1.670168E-03	    1.640000E-03	    7.900000E+02	    1.676019E-04	    2.675464E-03	    3.036610E+00	    1.745513E+05	
    2.673271E-02	    1.394086E-03	    6.538718E-03	   -1.000000E+00	    1.659116E-03	    1.640000E-03	    7.900000E+02	    1.061976E-04	    2.350340E-03	    3.698420E+00	    1.798501E+05	
    2.658683E-02	    9.240226E-04	    4.361760E-03	   -1.000000E+00	    1.651672E-03	    1.640000E-03	    7.900000E+02	    6.484425E-05	    1.994907E-03	    4.363585E+00	    1.829371E+05	
    2.648155E-02	    6.018232E-04	    2.815410E-03	   -1.000000E+00	    1.646836E-03	    1.640000E-03	    7.900000E+02	    3.797891E-05	    1.613379E-03	    4.873038E+00	    1.801430E+05	
    2.640871E-02	    3.863311E-04	    1.722875E-03	   -1.000000E+00	    1.643803E-03	    1.640000E-03	    7.900000E+02	    2.112859E-05	    1.211827E-03	    4.941748E+00	    1.639645E+05	
    2.635999E-02	    2.453293E-04	    9.570592E-04	   -1.000000E+00	    1.642095E-03	    1.640000E-03	    7.900000E+02	    1.163734E-05	    9.116898E-04	    5.078203E+00	    1.255862E+05	
    2.632824E-02	    1.547638E-04	    4.059624E-04	   -1.000000E+00	    1.641845E-03	    1.640000E-03	    7.900000E+02	    1.024764E-05	    1.776478E-03	    2.189601E+01	    5.637213E+04	
    2.631696E-02	    1.227928E-04	    0.000000E+00	    0.000000E+00	    1.000000E-03	    1.000000E-03	    1.000000E+03	    0.000000E+00	    0.000000E+00	    0.000000E+00	    0.000000E+00	
   -2.631458E-02	    1.236091E-04	    0.000000E+00	    0.000000E+00	    1.000000E-03	    1.000000E-03	    1.000000E+03	    0.000000E+00	    0.000000E+00	    0.000000E+00	    0.000000E+00	
   -2.632524E-02	    1.557890E-04	    9.714487E-04	   -1.000000E+00	    1.685476E-03	    1.640000E-03	    7.900000E+02	    2.526451E-04	    1.764527E-03	    8.762244E-01	    3.176522E+04	
   -2.635522E-02	    2.469378E-04	    2.305130E-03	   -1.000000E+00	    1.642108E-03	    1.640000E-03	    7.900000E+02	    1.170895E-05	    7.855423E-04	    3.747061E+00	    7.200501E+04	
   -2.640120E-02	    3.888238E-04	    4.146956E-03	   -1.000000E+00	    1.643677E-03	    1.640000E-03	    7.900000E+02	    2.043050E-05	    9.728116E-04	    3.293428E+00	    9.381294E+04	
   -2.646981E-02	    6.056102E-04	    6.768529E-03	   -1.000000E+00	    1.646741E-03	    1.640000E-03	    7.900000E+02	    3.745187E-05	    1.231603E-03	    2.879635E+00	    1.027480E+05	
   -2.656874E-02	    9.296166E-04	    1.046515E-02	   -1.000000E+00	    1.652092E-03	    1.640000E-03	    7.900000E+02	    6.717756E-05	    1.463338E-03	    2.266390E+00	    1.037306E+05	
   -2.670529E-02	    1.402040E-03	    1.563701E-02	   -1.000000E+00	    1.661753E-03	    1.640000E-03	    7.900000E+02	    1.208500E-04	    1.692818E-03	    1.685947E+00	    1.007315E+05	
   -2.688368E-02	    2.072674E-03	    2.274103E-02	   -1.000000E+00	    1.680045E-03	    1.640000E-03	    7.900000E+02	    2.224718E-04	    1.960122E-03	    1.227894E+00	    9.516789E+04	
   -2.710068E-02	    2.998124E-03	    3.220317E-02	   -1.000000E+00	    1.715690E-03	    1.640000E-03	    7.900000E+02	    4.205027E-04	    2.306623E-03	    8.996091E-01	    8.694725E+04	
   -2.733965E-02	    4.237935E-03	    4.429460E-02	   -1.000000E+00	    1.783327E-03	    1.640000E-03	    7.900000E+02	    7.962630E-04	    2.756119E-03	    6.782802E-01	    7.626283E+04	
   -2.756380E-02	    5.847939E-03	    5.901499E-02	   -1.000000E+00	    1.900048E-03	    1.640000E-03	    7.900000E+02	    1.444711E-03	    3.292813E-03	    5.336087E-01	    6.425283E+04	
   -2.771055E-02	    7.870166E-03	    7.607289E-02	   -1.000000E+00	    2.077032E-03	    1.640000E-03	    7.900000E+02	    2.427958E-03	    3.869741E-03	    4.385228E-01	    5.241126E+04	
   -2.769021E-02	    1.031936E-02	    9.495116E-02	   -1.000000E+00	    2.314997E-03	    1.640000E-03	    7.900000E+02	    3.749985E-03	    4.437910E-03	    3.734195E-01	    4.187780E+04	
   -2.739244E-02	    1.316794E-02	    1.149746E-01	   -1.000000E+00	    2.605759E-03	    1.640000E-03	    7.900000E+02	    5.365328E-03	    4.961067E-03	    3.261546E-01	    3.318204E+04	
   -2.670341E-02	    1.633407E-02	    1.353536E-01	   -1.000000E+00	    2.934543E-03	    1.640000E-03	    7.900000E+02	    7.191906E-03	    5.415651E-03	    2.899526E-01	    2.637212E+04	
   -2.553220E-02	    1.967999E-02	    1.552342E-01	   -1.000000E+00	    3.281649E-03	    1.640000E-03	    7.900000E+02	    9.120273E-03	    5.789140E-03	    2.612702E-01	    2.123563E+04	
   -2.383907E-02	    2.302671E-02	    1.737807E-01	   -1.000000E+00	    3.624945E-03	    1.640000E-03	    7.900000E+02	    1.102747E-02	    6.079509E-03	    2.383037E-01	    1.746565E+04	
   -2.165372E-02	    2.618464E-02	    1.902848E-01	   -1.000000E+00	    3.943540E-03	    1.640000E-03	    7.900000E+02	    1.279744E-02	    6.293721E-03	    2.200703E-01	    1.475474E+04	
   -1.907357E-02	    2.899087E-02	    2.042679E-01	   -1.000000E+00	    4.221458E-03	    1.640000E-03	    7.900000E+02	    1.434143E-02	    6.444499E-03	    2.058996E-01	    1.283758E+04	
   -1.624180E-02	    3.133841E-02	    2.155347E-01	   -1.000000E+00	    4.449809E-03	    1.640000E-03	    7.900000E+02	    1.561005E-02	    6.546495E-03	    1.952014E-01	    1.150291E+04	
   -1.331484E-02	    3.318709E-02	    2.241572E-01	   -1.000000E+00	    4.626815E-03	    1.640000E-03	    7.900000E+02	    1.659341E-02	    6.613255E-03	    1.873978E-01	    1.059035E+04	
   -1.043297E-02	    3.455550E-02	    2.304065E-01	   -1.000000E+00	    4.756165E-03	    1.640000E-03	    7.900000E+02	    1.731203E-02	    6.655667E-03	    1.819302E-01	    9.981347E+03	
   -7.702526E-03	    3.550180E-02	    2.346630E-01	   -1.000000E+00	    4.844753E-03	    1.640000E-03	    7.900000E+02	    1.780419E-02	    6.681684E-03	    1.782868E-01	    9.589408E+03	
   -5.191257E-03	    3.610281E-02	    2.373367E-01	   -1.000000E+00	    4.900631E-03	    1.640000E-03	    7.900000E+02	    1.811462E-02	    6.696776E-03	    1.760240E-01	    9.351709E+03	
   -2.932637E-03	    3.643758E-02	    2.388119E-01	   -1.000000E+00	    4.931604E-03	    1.640000E-03	    7.900000E+02	    1.828669E-02	    6.704590E-03	    1.747749E-01	    9.222618E+03	
   -9.343334E-04	    3.657735E-02	    2.394173E-01	   -1.000000E+00	    4.944452E-03	    1.640000E-03	    7.900000E+02	    1.835807E-02	    6.707558E-03	    1.742495E-01	    9.168992E+03	
    9.343334E-04	    3.657735E-02	    2.394173E-01	   -1.000000E+00	    4.944452E-03	    1.640000E-03	    7.900000E+02	    1.835807E-02	    6.707558E-03	    1.742495E-01	    9.168992E+03	
    2.932637E-03	    3.643758E-02	    2.388119E-01	   -1.000000E+00	    4.931604E-03	    1.640000E-03	    7.900000E+02	    1.828669E-02	    6.704590E-03	    1.747749E-01	    9.222618E+03	
    5.191257E-03	    3.610281E-02	    2.373367E-01	   -1.000000E+00	    4.900631E-03	    1.640000E-03	    7.900000E+02	    1.811462E-02	    6.696776E-03	    1.760240E-01	    9.351709E+03	
    7.702526E-03	    3.550180E-02	    2.346630E-01	   -1.000000E+00	    4.844753E-03	    1.640000E-03	    7.900000E+02	    1.780419E-02	    6.681684E-03	    1.782868E-01	    9.589408E+03	
    1.043297E-02	    3.455550E-02	    2.304065E-01	   -1.000000E+00	    4.756165E-03	    1.640000E-03	    7.900000E+02	    1.731203E-02	    6.655667E-03	    1.819302E-01	    9.981347E+03	
    1.331484E-02	    3.318709E-02	    2.241572E-01	   -1.000000E+00	    4.626815E-03	    1.640000E-03	    7.900000E+02	    1.659341E-02	    6.613255E-03	    1.873978E-01	    1.059035E+04	
    1.624180E-02	    3.133841E-02	    2.155347E-01	   -1.000000E+00	    4.449809E-03	    1.640000E-03	    7.900000E+02	    1.561005E-02	    6.546495E-03	    1.952014E-01	    1.150291E+04	
    1.907357E-02	    2.899087E-02	    2.042679E-01	   -1.000000E+00	    4.221458E-03	    1.640000E-03	    7.900000E+02	    1.434143E-02	    6.444499E-03	    2.058996E-01	    1.283758E+04	
    2.165372E-02	    2.618464E-02	    1.902848E-01	   -1.000000E+00	    3.943540E-03	    1.640000E-03	    7.900000E+02	    1.279744E-02	    6.293721E-03	    2.200703E-01	    1.475474E+04	
    2.383907E-02	    2.302671E-02	    1.737807E-01	   -1.000000E+00	    3.624945E-03	    1.640000E-03	    7.900000E+02	    1.102747E-02	    6.079509E-03	    2.383037E-01	    1.746565E+04	
    2.553220E-02	    1.967999E-02	    1.552342E-01	   -1.000000E+00	    3.281649E-03	    1.640000E-03	    7.900000E+02	    9.120273E-03	    5.789140E-03	    2.612702E-01	    2.123563E+04	
    2.670341E-02	    1.633407E-02	    1.353536E-01	   -1.000000E+00	    2.934543E-03	    1.640000E-03	    7.900000E+02	    7.191906E-03	    5.415651E-03	    2.899526E-01	    2.637212E+04	
    2.739244E-02	    1.316794E-02	    1.149746E-01	   -1.000000E+00	    2.605759E-03	    1.640000E-03	    7.900000E+02	    5.365328E-03	    4.961067E-03	    3.261546E-01	    3.318204E+04	
    2.769021E-02	    1.031936E-02	    9.495116E-02	   -1.000000E+00	    2.314997E-03	    1.640000E-03	    7.900000E+02	    3.749985E-03	    4.437910E-03	    3.734195E-01	    4.187780E+04	
    2.771055E-02	    7.870166E-03	    7.607289E-02	   -1.000000E+00	    2.077032E-03	    1.640000E-03	    7.900000E+02	    2.427958E-03	    3.869741E-03	    4.385228E-01	    5.241126E+04	
    2.756380E-02	    5.847939E-03	    5.901499E-02	   -1.000000E+00	    1.900048E-03	    1.640000E-03	    7.900000E+02	    1.444711E-03	    3.292813E-03	    5.336087E-01	    6.425283E+04	
    2.733965E-02	    4.237935E-03	    4.429460E-02	   -1.000000E+00	    1.783327E-03	    1.640000E-03	    7.900000E+02	    7.962630E-04	    2.756119E-03	    6.782802E-01	    7.626283E+04	
    2.710068E-02	    2.998124E-03	    3.220317E-02	   -1.000000E+00	    1.715690E-03	    1.640000E-03	    7.900000E+02	    4.205027E-04	    2.306623E-03	    8.996091E-01	    8.694725E+04	
    2.688368E-02	    2.072674E-03	    2.274103E-02	   -1.000000E+00	    1.680045E-03	    1.640000E-03	    7.900000E+02	    2.224718E-04	    1.960122E-03	    1.227894E+00	    9.516789E+04	
    2.670529E-02	    1.402040E-03	    1.563701E-02	   -1.000000E+00	    1.661753E-03	    1.640000E-03	    7.900000E+02	    1.208500E-04	    1.692818E-03	    1.685947E+00	    1.007315E+05	
    2.656874E-02	    9.296166E-04	    1.046515E-02	   -1.000000E+00	    1.652092E-03	    1.640000E-03	    7.900000E+02	    6.717756E-05	    1.463338E-03	    2.266390E+00	    1.037306E+05	
    2.646981E-02	    6.056102E-04	    6.768529E-03	   -1.000000E+00	    1.646741E-03	    1.640000E-03	    7.900000E+02	    3.745187E-05	    1.231603E-03	    2.879635E+00	    1.027480E+05	
    2.640120E-02	    3.888238E-04	    4.146956E-03	   -1.000000E+00	    1.643677E-03	    1.640000E-03	    7.900000E+02	    2.043050E-05	    9.728116E-04	    3.293428E+00	    9.381294E+04	
    2.635522E-02	    2.469378E-04	    2.305130E-03	   -1.000000E+00	    1.642108E-03	    1.640000E-03	    7.900000E+02	    1.170895E-05	    7.855423E-04	    3.747061E+00	    7.200501E+04	
    2.632524E-02	    1.557890E-04	    9.714487E-04	   -1.000000E+00	    1.685476E-03	    1.640000E-03	    7.900000E+02	    2.526451E-04	    1.764527E-03	    8.762244E-01	    3.176522E+04	
    2.631458E-02	    1.236091E-04	    0.000000E+00	    0.000000E+00	    1.000000E-03	    1.000000E-03	    1.000000E+03	    0.000000E+00	    0.000000E+00	    0.000000E+00	    0.000000E+00	
   -2.631144E-02	    1.246082E-04	    0.000000E+00	    0.000000E+00	    1.000000E-03	    1.000000E-03	    1.000000E+03	    0.000000E+00	    0.000000E+00	    0.000000E+00	    0.000000E+00	
   -2.632128E-02	    1.570433E-04	    1.700392E-03	   -1.000000E+00	    1.685376E-03	    1.640000E-03	    7.900000E+02	    2.520904E-04	    1.757260E-03	    8.709346E-01	    3.220002E+04	