Title="Fields"
Variables="X""Y""Velocity""Phi""Effective Viscosity""Dynamic Viscosity""Density""Eddy Viscosity""K""Epsilon""S"
Zone I=52 J=52 F=POINT
   -1.093477E-02	    4.889258E-05	    0.000000E+00	    0.000000E+00	    1.000000E-03	    1.000000E-03	    1.000000E+03	    0.000000E+00	    0.000000E+00	    0.000000E+00	    0.000000E+00	
   -1.092862E-02	    6.156151E-05	    0.000000E+00	    0.000000E+00	    1.000000E-03	    1.000000E-03	    1.000000E+03	    0.000000E+00	    0.000000E+00	    0.000000E+00	    0.000000E+00	
   -1.091118E-02	    9.731329E-05	    0.000000E+00	    0.000000E+00	    1.000000E-03	    1.000000E-03	    1.000000E+03	    0.000000E+00	    0.000000E+00	    0.000000E+00	    0.000000E+00	
   -1.088394E-02	    1.525789E-04	    0.000000E+00	    0.000000E+00	    1.000000E-03	    1.000000E-03	    1.000000E+03	    0.000000E+00	    0.000000E+00	    0.000000E+00	    0.000000E+00	
   -1.084208E-02	    2.361209E-04	    0.000000E+00	    0.000000E+00	    1.000000E-03	    1.000000E-03	    1.000000E+03	    0.000000E+00	    0.000000E+00	    0.000000E+00	    0.000000E+00	
   -1.077906E-02	    3.589988E-04	    0.000000E+00	    0.000000E+00	    1.000000E-03	    1.000000E-03	    1.000000E+03	    0.000000E+00	    0.000000E+00	    0.000000E+00	    0.000000E+00	
   -1.068619E-02	    5.340300E-04	    0.000000E+00	    0.000000E+00	    1.000000E-03	    1.000000E-03	    1.000000E+03	    0.000000E+00	    0.000000E+00	    0.000000E+00	    0.000000E+00	
   -1.055259E-02	    7.744276E-04	    0.000000E+00	    0.000000E+00	    1.000000E-03	    1.000000E-03	    1.000000E+03	    0.000000E+00	    0.000000E+00	    0.000000E+00	    0.000000E+00	
   -1.036521E-02	    1.091508E-03	    0.000000E+00	    0.000000E+00	    1.000000E-03	    1.000000E-03	    1.000000E+03	    0.000000E+00	    0.000000E+00	    0.000000E+00	    0.000000E+00	
   -1.010960E-02	    1.491677E-03	    0.000000E+00	    0.000000E+00	    1.000000E-03	    1.000000E-03	    1.000000E+03	    0.000000E+00	    0.000000E+00	    0.000000E+00	    0.000000E+00	
   -9.771388E-03	    1.973329E-03	    0.000000E+00	    0.000000E+00	    1.000000E-03	    1.000000E-03	    1.000000E+03	    0.000000E+00	    0.000000E+00	    0.000000E+00	    0.000000E+00	
   -9.338800E-03	    2.524697E-03	    0.000000E+00	    0.000000E+00	    1.000000E-03	    1.000000E-03	    1.000000E+03	    0.000000E+00	    0.000000E+00	    0.000000E+00	    0.000000E+00	
   -8.805812E-03	    3.123744E-03	    0.000000E+00	    0.000000E+00	    1.000000E-03	    1.000000E-03	    1.000000E+03	    0.000000E+00	    0.000000E+00	    0.000000E+00	    0.000000E+00	
   -8.175052E-03	    3.740736E-03	    0.000000E+00	    0.000000E+00	    1.000000E-03	    1.000000E-03	    1.000000E+03	    0.000000E+00	    0.000000E+00	    0.000000E+00	    0.000000E+00	
   -7.459221E-03	    4.343106E-03	    0.000000E+00	    0.000000E+00	    1.000000E-03	    1.000000E-03	    1.000000E+03	    0.000000E+00	    0.000000E+00	    0.000000E+00	    0.000000E+00	
   -6.680117E-03	    4.901174E-03	    0.000000E+00	    0.000000E+00	    1.000000E-03	    1.000000E-03	    1.000000E+03	    0.000000E+00	    0.000000E+00	    0.000000E+00	    0.000000E+00	
   -5.865372E-03	    5.392838E-03	    0.000000E+00	    0.000000E+00	    1.000000E-03	    1.000000E-03	    1.000000E+03	    0.000000E+00	    0.000000E+00	    0.000000E+00	    0.000000E+00	
   -5.043999E-03	    5.805886E-03	    0.000000E+00	    0.000000E+00	    1.000000E-03	    1.000000E-03	    1.000000E+03	    0.000000E+00	    0.000000E+00	    0.000000E+00	    0.000000E+00	
   -4.242249E-03	    6.137687E-03	    0.000000E+00	    0.000000E+00	    1.000000E-03	    1.000000E-03	    1.000000E+03	    0.000000E+00	    0.000000E+00	    0.000000E+00	    0.000000E+00	
   -3.480861E-03	    6.393063E-03	    0.000000E+00	    0.000000E+00	    1.000000E-03	    1.000000E-03	    1.000000E+03	    0.000000E+00	    0.000000E+00	    0.000000E+00	    0.000000E+00	
   -2.774014E-03	    6.581443E-03	    0.000000E+00	    0.000000E+00	    1.000000E-03	    1.000000E-03	    1.000000E+03	    0.000000E+00	    0.000000E+00	    0.000000E+00	    0.000000E+00	
   -2.129654E-03	    6.714255E-03	    0.000000E+00	    0.000000E+00	    1.000000E-03	    1.000000E-03	    1.000000E+03	    0.000000E+00	    0.000000E+00	    0.000000E+00	    0.000000E+00	
   -1.550615E-03	    6.803001E-03	    0.000000E+00	    0.000000E+00	    1.000000E-03	    1.000000E-03	    1.000000E+03	    0.000000E+00	    0.000000E+00	    0.000000E+00	    0.000000E+00	
   -1.035992E-03	    6.858105E-03	    0.000000E+00	    0.000000E+00	    1.000000E-03	    1.000000E-03	    1.000000E+03	    0.000000E+00	    0.000000E+00	    0.000000E+00	    0.000000E+00	
   -5.824343E-04	    6.888386E-03	    0.000000E+00	    0.000000E+00	    1.000000E-03	    1.000000E-03	    1.000000E+03	    0.000000E+00	    0.000000E+00	    0.000000E+00	    0.000000E+00	
   -1.851905E-04	    6.900942E-03	    0.000000E+00	    0.000000E+00	    1.000000E-03	    1.000000E-03	    1.000000E+03	    0.000000E+00	    0.000000E+00	    0.000000E+00	    0.000000E+00	
    1.851905E-04	    6.900942E-03	    0.000000E+00	    0.000000E+00	    1.000000E-03	    1.000000E-03	    1.000000E+03	    0.000000E+00	    0.000000E+00	    0.000000E+00	    0.000000E+00	
    5.824343E-04	    6.888386E-03	    0.000000E+00	    0.000000E+00	    1.000000E-03	    1.000000E-03	    1.000000E+03	    0.000000E+00	    0.000000E+00	    0.000000E+00	    0.000000E+00	
    1.035992E-03	    6.858105E-03	    0.000000E+00	    0.000000E+00	    1.000000E-03	    1.000000E-03	    1.000000E+03	    0.000000E+00	    0.000000E+00	    0.000000E+00	    0.000000E+00	
    1.550615E-03	    6.803001E-03	    0.000000E+00	    0.000000E+00	    1.000000E-03	    1.000000E-03	    1.000000E+03	    0.000000E+00	    0.000000E+00	    0.000000E+00	    0.000000E+00	
    2.129654E-03	    6.714255E-03	    0.000000E+00	    0.000000E+00	    1.000000E-03	    1.000000E-03	    1.000000E+03	    0.000000E+00	    0.000000E+00	    0.000000E+00	    0.000000E+00	
    2.774014E-03	    6.581443E-03	    0.000000E+00	    0.000000E+00	    1.000000E-03	    1.000000E-03	    1.000000E+03	    0.000000E+00	    0.000000E+00	    0.000000E+00	    0.000000E+00	
    3.480861E-03	    6.393063E-03	    0.000000E+00	    0.000000E+00	    1.000000E-03	    1.000000E-03	    1.000000E+03	    0.000000E+00	    0.000000E+00	    0.000000E+00	    0.000000E+00	
    4.242249E-03	    6.137687E-03	    0.000000E+00	    0.000000E+00	    1.000000E-03	    1.000000E-03	    1.000000E+03	    0.000000E+00	    0.000000E+00	    0.000000E+00	    0.000000E+00	
    5.043999E-03	    5.805886E-03	    0.000000E+00	    0.000000E+00	    1.000000E-03	    1.000000E-03	    1.000000E+03	    0.000000E+00	    0.000000E+00	    0.000000E+00	    0.000000E+00	
    5.865372E-03	    5.392838E-03	    0.000000E+00	    0.000000E+00	    1.000000E-03	    1.000000E-03	    1.000000E+03	    0.000000E+00	    0.000000E+00	    0.000000E+00	    0.000000E+00	
    6.680117E-03	    4.901174E-03	    0.000000E+00	    0.000000E+00	    1.000000E-03	    1.000000E-03	    1.000000E+03	    0.000000E+00	    0.000000E+00	    0.000000E+00	    0.000000E+00	
    7.459221E-03	    4.343106E-03	    0.000000E+00	    0.000000E+00	    1.000000E-03	    1.000000E-03	    1.000000E+03	    0.000000E+00	    0.000000E+00	    0.000000E+00	    0.000000E+00	
    8.175052E-03	    3.740736E-03	    0.000000E+00	    0.000000E+00	    1.000000E-03	    1.000000E-03	    1.000000E+03	    0.000000E+00	    0.000000E+00	    0.000000E+00	    0.000000E+00	
    8.805812E-03	    3.123744E-03	    0.000000E+00	    0.000000E+00	    1.000000E-03	    1.000000E-03	    1.000000E+03	    0.000000E+00	    0.000000E+00	    0.000000E+00	    0.000000E+00	
    9.338800E-03	    2.524697E-03	    0.000000E+00	    0.000000E+00	    1.000000E-03	    1.000000E-03	    1.000000E+03	    0.000000E+00	    0.000000E+00	    0.000000E+00	    0.000000E+00	
    9.771388E-03	    1.973329E-03	    0.000000E+00	    0.000000E+00	    1.000000E-03	    1.000000E-03	    1.000000E+03	    0.000000E+00	    0.000000E+00	    0.000000E+00	    0.000000E+00	
    1.010960E-02	    1.491677E-03	    0.000000E+00	    0.000000E+00	    1.000000E-03	    1.000000E-03	    1.000000E+03	    0.000000E+00	    0.000000E+00	    0.000000E+00	    0.000000E+00	
    1.036521E-02	    1.091508E-03	    0.000000E+00	    0.000000E+00	    1.000000E-03	    1.000000E-03	    1.000000E+03	    0.000000E+00	    0.000000E+00	    0.000000E+00	    0.000000E+00	
    1.055259E-02	    7.744276E-04	    0.000000E+00	    0.000000E+00	    1.000000E-03	    1.000000E-03	    1.000000E+03	    0.000000E+00	    0.000000E+00	    0.000000E+00	    0.000000E+00	
    1.068619E-02	    5.340300E-04	    0.000000E+00	    0.000000E+00	    1.000000E-03	    1.000000E-03	    1.000000E+03	    0.000000E+00	    0.000000E+00	    0.000000E+00	    0.000000E+00	
    1.077906E-02	    3.589988E-04	    0.000000E+00	    0.000000E+00	    1.000000E-03	    1.000000E-03	    1.000000E+03	    0.000000E+00	    0.000000E+00	    0.000000E+00	    0.000000E+00	
    1.084208E-02	    2.361209E-04	    0.000000E+00	    0.000000E+00	    1.000000E-03	    1.000000E-03	    1.000000E+03	    0.000000E+00	    0.000000E+00	    0.000000E+00	    0.000000E+00	
    1.088394E-02	    1.525789E-04	    0.000000E+00	    0.000000E+00	    1.000000E-03	    1.000000E-03	    1.000000E+03	    0.000000E+00	    0.000000E+00	    0.000000E+00	    0.000000E+00	
    1.091118E-02	    9.731329E-05	    0.000000E+00	    0.000000E+00	    1.000000E-03	    1.000000E-03	    1.000000E+03	    0.000000E+00	    0.000000E+00	    0.000000E+00	    0.000000E+00	
    1.092862E-02	    6.156151E-05	    0.000000E+00	    0.000000E+00	    1.000000E-03	    1.000000E-03	    1.000000E+03	    0.000000E+00	    0.000000E+00	    0.000000E+00	    0.000000E+00	
    1.093477E-02	    4.889258E-05	    0.000000E+00	    0.000000E+00	    1.000000E-03	    1.000000E-03	    1.000000E+03	    0.000000E+00	    0.000000E+00	    0.000000E+00	    0.000000E+00	
   -1.093453E-02	    4.877692E-05	    0.000000E+00	    0.000000E+00	    1.000000E-03	    1.000000E-03	    1.000000E+03	    0.000000E+00	    0.000000E+00	    0.000000E+00	    0.000000E+00	
   -1.092832E-02	    6.141553E-05	    2.237897E-04	   -1.000000E+00	    1.600643E-03	    1.600000E-03	    8.010000E+02	    3.572069E-06	    3.568921E-03	    2.570567E+02	    2.975863E+05	
   -1.091071E-02	    9.708100E-05	    5.468163E-04	   -1.000000E+00	    1.600630E-03	    1.600000E-03	    8.010000E+02	    3.502035E-06	    1.372838E-03	    3.879653E+01	    7.146562E+05	
   -1.088320E-02	    1.522110E-04	    9.805583E-04	   -1.000000E+00	    1.601087E-03	    1.600000E-03	    8.010000E+02	    6.040147E-06	    1.661265E-03	    3.293862E+01	    9.345702E+05	
   -1.084095E-02	    2.355428E-04	    1.579057E-03	   -1.000000E+00	    1.601937E-03	    1.600000E-03	    8.010000E+02	    1.076148E-05	    2.202037E-03	    3.248269E+01	    1.011569E+06	
   -1.077734E-02	    3.581002E-04	    2.403809E-03	   -1.000000E+00	    1.603298E-03	    1.600000E-03	    8.010000E+02	    1.832001E-05	    2.760824E-03	    2.999346E+01	    1.013410E+06	
   -1.068366E-02	    5.326519E-04	    3.528006E-03	   -1.000000E+00	    1.605383E-03	    1.600000E-03	    8.010000E+02	    2.990514E-05	    3.324811E-03	    2.664791E+01	    9.854595E+05	
   -1.054896E-02	    7.723468E-04	    5.028040E-03	   -1.000000E+00	    1.608440E-03	    1.600000E-03	    8.010000E+02	    4.689155E-05	    3.887591E-03	    2.323494E+01	    9.502977E+05	
   -1.036019E-02	    1.088422E-03	    6.966953E-03	   -1.000000E+00	    1.612702E-03	    1.600000E-03	    8.010000E+02	    7.056476E-05	    4.432370E-03	    2.007054E+01	    9.163579E+05	
   -1.010291E-02	    1.487195E-03	    9.376254E-03	   -1.000000E+00	    1.618321E-03	    1.600000E-03	    8.010000E+02	    1.017860E-04	    4.938765E-03	    1.727522E+01	    8.858614E+05	
   -9.762836E-03	    1.966980E-03	    1.223864E-02	   -1.000000E+00	    1.625317E-03	    1.600000E-03	    8.010000E+02	    1.406518E-04	    5.389838E-03	    1.488954E+01	    8.587750E+05	
   -9.328346E-03	    2.515959E-03	    1.547744E-02	   -1.000000E+00	    1.633527E-03	    1.600000E-03	    8.010000E+02	    1.862622E-04	    5.775918E-03	    1.291197E+01	    8.344923E+05	
   -8.793618E-03	    3.112107E-03	    1.895875E-02	   -1.000000E+00	    1.642607E-03	    1.600000E-03	    8.010000E+02	    2.367076E-04	    6.095074E-03	    1.131412E+01	    8.124974E+05	
   -8.161500E-03	    3.725781E-03	    2.250876E-02	   -1.000000E+00	    1.652077E-03	    1.600000E-03	    8.010000E+02	    2.893178E-04	    6.351269E-03	    1.005127E+01	    7.925693E+05	
   -7.444868E-03	    4.324588E-03	    2.594321E-02	   -1.000000E+00	    1.661403E-03	    1.600000E-03	    8.010000E+02	    3.411291E-04	    6.552047E-03	    9.072150E+00	    7.747783E+05	
   -6.665615E-03	    4.879070E-03	    2.909955E-02	   -1.000000E+00	    1.670096E-03	    1.600000E-03	    8.010000E+02	    3.894224E-04	    6.706399E-03	    8.325931E+00	    7.593234E+05	
   -5.851364E-03	    5.367349E-03	    3.186125E-02	   -1.000000E+00	    1.677788E-03	    1.600000E-03	    8.010000E+02	    4.321535E-04	    6.823126E-03	    7.766115E+00	    7.463470E+05	
   -5.031033E-03	    5.777387E-03	    3.416811E-02	   -1.000000E+00	    1.684269E-03	    1.600000E-03	    8.010000E+02	    4.681628E-04	    6.910006E-03	    7.352499E+00	    7.358372E+05	
   -4.230723E-03	    6.106663E-03	    3.601264E-02	   -1.000000E+00	    1.689487E-03	    1.600000E-03	    8.010000E+02	    4.971524E-04	    6.973568E-03	    7.051727E+00	    7.276238E+05	
   -3.471011E-03	    6.360028E-03	    3.742707E-02	   -1.000000E+00	    1.693510E-03	    1.600000E-03	    8.010000E+02	    5.194982E-04	    7.019151E-03	    6.836915E+00	    7.214267E+05	
   -2.765933E-03	    6.546889E-03	    3.846737E-02	   -1.000000E+00	    1.696480E-03	    1.600000E-03	    8.010000E+02	    5.359975E-04	    7.051053E-03	    6.686830E+00	    7.169150E+05	
   -2.123326E-03	    6.678611E-03	    3.919903E-02	   -1.000000E+00	    1.698574E-03	    1.600000E-03	    8.010000E+02	    5.476357E-04	    7.072682E-03	    6.584936E+00	    7.137562E+05	
   -1.545946E-03	    6.766620E-03	    3.968685E-02	   -1.000000E+00	    1.699974E-03	    1.600000E-03	    8.010000E+02	    5.554130E-04	    7.086705E-03	    6.518500E+00	    7.116462E+05	
   -1.032847E-03	    6.821264E-03	    3.998897E-02	   -1.000000E+00	    1.700843E-03	    1.600000E-03	    8.010000E+02	    5.602398E-04	    7.095182E-03	    6.477809E+00	    7.103250E+05	
   -5.806587E-04	    6.851290E-03	    4.015428E-02	   -1.000000E+00	    1.701320E-03	    1.600000E-03	    8.010000E+02	    5.628881E-04	    7.099682E-03	    6.455513E+00	    7.095796E+05	
   -1.846249E-04	    6.863740E-03	    4.022192E-02	   -1.000000E+00	    1.701516E-03	    1.600000E-03	    8.010000E+02	    5.639801E-04	    7.101382E-03	    6.446099E+00	    7.092402E+05	
    1.846249E-04	    6.863740E-03	    4.022192E-02	   -1.000000E+00	    1.701516E-03	    1.600000E-03	    8.010000E+02	    5.639801E-04	    7.101382E-03	    6.446099E+00	    7.092402E+05	
    5.806587E-04	    6.851290E-03	    4.015428E-02	   -1.000000E+00	    1.701320E-03	    1.600000E-03	    8.010000E+02	    5.628881E-04	    7.099682E-03	    6.455513E+00	    7.095796E+05	
    1.032847E-03	    6.821264E-03	    3.998897E-02	   -1.000000E+00	    1.700843E-03	    1.600000E-03	    8.010000E+02	    5.602398E-04	    7.095182E-03	    6.477809E+00	    7.103250E+05	
    1.545946E-03	    6.766620E-03	    3.968685E-02	   -1.000000E+00	    1.699974E-03	    1.600000E-03	    8.010000E+02	    5.554130E-04	    7.086705E-03	    6.518500E+00	    7.116462E+05	
    2.123326E-03	    6.678611E-03	    3.919903E-02	   -1.000000E+00	    1.698574E-03	    1.600000E-03	    8.010000E+02	    5.476357E-04	    7.072682E-03	    6.584936E+00	    7.137562E+05	
    2.765933E-03	    6.546889E-03	    3.846737E-02	   -1.000000E+00	    1.696480E-03	    1.600000E-03	    8.010000E+02	    5.359975E-04	    7.051053E-03	    6.686830E+00	    7.169150E+05	
    3.471011E-03	    6.360028E-03	    3.742707E-02	   -1.000000E+00	    1.693510E-03	    1.600000E-03	    8.010000E+02	    5.194982E-04	    7.019151E-03	    6.836915E+00	    7.214267E+05	
    4.230723E-03	    6.106663E-03	    3.601264E-02	   -1.000000E+00	    1.689487E-03	    1.600000E-03	    8.010000E+02	    4.971524E-04	    6.973568E-03	    7.051727E+00	    7.276238E+05	
    5.031033E-03	    5.777387E-03	    3.416811E-02	   -1.000000E+00	    1.684269E-03	    1.600000E-03	    8.010000E+02	    4.681628E-04	    6.910006E-03	    7.352499E+00	    7.358372E+05	
    5.851364E-03	    5.367349E-03	    3.186125E-02	   -1.000000E+00	    1.677788E-03	    1.600000E-03	    8.010000E+02	    4.321535E-04	    6.823126E-03	    7.766115E+00	    7.463470E+05	
    6.665615E-03	    4.879070E-03	    2.909955E-02	   -1.000000E+00	    1.670096E-03	    1.600000E-03	    8.010000E+02	    3.894224E-04	    6.706399E-03	    8.325931E+00	    7.593234E+05	
    7.444868E-03	    4.324588E-03	    2.594321E-02	   -1.000000E+00	    1.661403E-03	    1.600000E-03	    8.010000E+02	    3.411291E-04	    6.552047E-03	    9.072150E+00	    7.747783E+05	
    8.161500E-03	    3.725781E-03	    2.250876E-02	   -1.000000E+00	    1.652077E-03	    1.600000E-03	    8.010000E+02	    2.893178E-04	    6.351269E-03	    1.005127E+01	    7.925693E+05	
    8.793618E-03	    3.112107E-03	    1.895875E-02	   -1.000000E+00	    1.642607E-03	    1.600000E-03	    8.010000E+02	    2.367076E-04	    6.095074E-03	    1.131412E+01	    8.124974E+05	
    9.328346E-03	    2.515959E-03	    1.547744E-02	   -1.000000E+00	    1.633527E-03	    1.600000E-03	    8.010000E+02	    1.862622E-04	    5.775918E-03	    1.291197E+01	    8.344923E+05	
    9.762836E-03	    1.966980E-03	    1.223864E-02	   -1.000000E+00	    1.625317E-03	    1.600000E-03	    8.010000E+02	    1.406518E-04	    5.389838E-03	    1.488954E+01	    8.587750E+05	
    1.010291E-02	    1.487195E-03	    9.376254E-03	   -1.000000E+00	    1.618321E-03	    1.600000E-03	    8.010000E+02	    1.017860E-04	    4.938765E-03	    1.727522E+01	    8.858614E+05	
    1.036019E-02	    1.088422E-03	    6.966953E-03	   -1.000000E+00	    1.612702E-03	    1.600000E-03	    8.010000E+02	    7.056476E-05	    4.432370E-03	    2.007054E+01	    9.163579E+05	
    1.054896E-02	    7.723468E-04	    5.028040E-03	   -1.000000E+00	    1.608440E-03	    1.600000E-03	    8.010000E+02	    4.689155E-05	    3.887591E-03	    2.323494E+01	    9.502977E+05	
    1.068366E-02	    5.326519E-04	    3.528006E-03	   -1.000000E+00	    1.605383E-03	    1.600000E-03	    8.010000E+02	    2.990514E-05	    3.324811E-03	    2.664791E+01	    9.854595E+05	
    1.077734E-02	    3.581002E-04	    2.403809E-03	   -1.000000E+00	    1.603298E-03	    1.600000E-03	    8.010000E+02	    1.832001E-05	    2.760824E-03	    2.999346E+01	    1.013410E+06	
    1.084095E-02	    2.355428E-04	    1.579057E-03	   -1.000000E+00	    1.601937E-03	    1.600000E-03	    8.010000E+02	    1.076148E-05	    2.202037E-03	    3.248269E+01	    1.011569E+06	
    1.088320E-02	    1.522110E-04	    9.805583E-04	   -1.000000E+00	    1.601087E-03	    1.600000E-03	    8.010000E+02	    6.040147E-06	    1.661265E-03	    3.293862E+01	    9.345702E+05	
    1.091071E-02	    9.708100E-05	    5.468163E-04	   -1.000000E+00	    1.600630E-03	    1.600000E-03	    8.010000E+02	    3.502035E-06	    1.372838E-03	    3.879653E+01	    7.146562E+05	
    1.092832E-02	    6.141553E-05	    2.237897E-04	   -1.000000E+00	    1.600643E-03	    1.600000E-03	    8.010000E+02	    3.572069E-06	    3.568921E-03	    2.570567E+02	    2.975863E+05	
    1.093453E-02	    4.877692E-05	    0.000000E+00	    0.000000E+00	    1.000000E-03	    1.000000E-03	    1.000000E+03	    0.000000E+00	    0.000000E+00	    0.000000E+00	    0.000000E+00	
   -1.093398E-02	    4.850483E-05	    0.000000E+00	    0.000000E+00	    1.000000E-03	    1.000000E-03	    1.000000E+03	    0.000000E+00	    0.000000E+00	    0.000000E+00	    0.000000E+00	
   -1.092764E-02	    6.107214E-05	    5.449858E-04	   -1.000000E+00	    1.627176E-03	    1.600000E-03	    8.010000E+02	    1.509800E-04	    3.553843E-03	    6.030484E+00	    1.735422E+05	
   -1.090963E-02	    9.653467E-05	    1.337257E-03	   -1.000000E+00	    1.600641E-03	    1.600000E-03	    8.010000E+02	    3.561609E-06	    1.271301E-03	    3.271340E+01	    4.227307E+05	
   -1.088150E-02	    1.513459E-04	    2.397514E-03	   -1.000000E+00	    1.601062E-03	    1.600000E-03	    8.010000E+02	    5.900745E-06	    1.466533E-03	    2.627554E+01	    5.524558E+05	
   -1.083833E-02	    2.341840E-04	    3.859419E-03	   -1.000000E+00	    1.601881E-03	    1.600000E-03	    8.010000E+02	    1.044786E-05	    1.868416E-03	    2.408768E+01	    5.974599E+05	
   -1.077338E-02	    3.559897E-04	    5.871652E-03	   -1.000000E+00	    1.603204E-03	    1.600000E-03	    8.010000E+02	    1.780219E-05	    2.246816E-03	    2.044263E+01	    5.977445E+05	
   -1.067783E-02	    5.294179E-04	    8.609635E-03	   -1.000000E+00	    1.605285E-03	    1.600000E-03	    8.010000E+02	    2.935979E-05	    2.593942E-03	    1.652124E+01	    5.800029E+05	
   -1.054061E-02	    7.674689E-04	    1.225333E-02	   -1.000000E+00	    1.608496E-03	    1.600000E-03	    8.010000E+02	    4.720193E-05	    2.919002E-03	    1.301320E+01	    5.573312E+05	
   -1.034864E-02	    1.081198E-03	    1.694502E-02	   -1.000000E+00	    1.613381E-03	    1.600000E-03	    8.010000E+02	    7.433998E-05	    3.233720E-03	    1.014045E+01	    5.342591E+05	
   -1.008752E-02	    1.476721E-03	    2.274308E-02	   -1.000000E+00	    1.620705E-03	    1.600000E-03	    8.010000E+02	    1.150292E-04	    3.553676E-03	    7.914485E+00	    5.113704E+05	
   -9.743178E-03	    1.952167E-03	    2.957928E-02	   -1.000000E+00	    1.631459E-03	    1.600000E-03	    8.010000E+02	    1.747705E-04	    3.894518E-03	    6.256252E+00	    4.877843E+05	
   -9.304334E-03	    2.495609E-03	    3.723573E-02	   -1.000000E+00	    1.646681E-03	    1.600000E-03	    8.010000E+02	    2.593374E-04	    4.264523E-03	    5.055345E+00	    4.627507E+05	
   -8.765637E-03	    3.085053E-03	    4.535831E-02	   -1.000000E+00	    1.667027E-03	    1.600000E-03	    8.010000E+02	    3.723748E-04	    4.658914E-03	    4.202078E+00	    4.366537E+05	
   -8.130429E-03	    3.691077E-03	    5.351212E-02	   -1.000000E+00	    1.692230E-03	    1.600000E-03	    8.010000E+02	    5.123913E-04	    5.060041E-03	    3.602312E+00	    4.108883E+05	
   -7.411989E-03	    4.281687E-03	    6.126476E-02	   -1.000000E+00	    1.720858E-03	    1.600000E-03	    8.010000E+02	    6.714343E-04	    5.444251E-03	    3.182349E+00	    3.870350E+05	
   -6.632422E-03	    4.827934E-03	    6.826500E-02	   -1.000000E+00	    1.750657E-03	    1.600000E-03	    8.010000E+02	    8.369820E-04	    5.790685E-03	    2.888144E+00	    3.662249E+05	
   -5.819326E-03	    5.308450E-03	    7.428913E-02	   -1.000000E+00	    1.779256E-03	    1.600000E-03	    8.010000E+02	    9.958687E-04	    6.086464E-03	    2.681656E+00	    3.489621E+05	
   -5.001395E-03	    5.711600E-03	    7.924824E-02	   -1.000000E+00	    1.804796E-03	    1.600000E-03	    8.010000E+02	    1.137756E-03	    6.327278E-03	    2.536645E+00	    3.352341E+05	
   -4.204388E-03	    6.035100E-03	    8.316575E-02	   -1.000000E+00	    1.826208E-03	    1.600000E-03	    8.010000E+02	    1.256711E-03	    6.515333E-03	    2.435078E+00	    3.247073E+05	
   -3.448514E-03	    6.283873E-03	    8.614118E-02	   -1.000000E+00	    1.843181E-03	    1.600000E-03	    8.010000E+02	    1.351004E-03	    6.656683E-03	    2.364471E+00	    3.168994E+05	
   -2.747483E-03	    6.467265E-03	    8.831383E-02	   -1.000000E+00	    1.855954E-03	    1.600000E-03	    8.010000E+02	    1.421966E-03	    6.759002E-03	    2.316065E+00	    3.112975E+05	
   -2.108879E-03	    6.596499E-03	    8.983389E-02	   -1.000000E+00	    1.865080E-03	    1.600000E-03	    8.010000E+02	    1.472665E-03	    6.830095E-03	    2.283624E+00	    3.074240E+05	
   -1.535290E-03	    6.682827E-03	    9.084367E-02	   -1.000000E+00	    1.871229E-03	    1.600000E-03	    8.010000E+02	    1.506829E-03	    6.877063E-03	    2.262649E+00	    3.048667E+05	
   -1.025671E-03	    6.736419E-03	    9.146755E-02	   -1.000000E+00	    1.875066E-03	    1.600000E-03	    8.010000E+02	    1.528145E-03	    6.905946E-03	    2.249867E+00	    3.032866E+05	
   -5.766066E-04	    6.765865E-03	    9.180834E-02	   -1.000000E+00	    1.877178E-03	    1.600000E-03	    8.010000E+02	    1.539879E-03	    6.921638E-03	    2.242880E+00	    3.024147E+05	
   -1.833342E-04	    6.778074E-03	    9.194756E-02	   -1.000000E+00	    1.878051E-03	    1.600000E-03	    8.010000E+02	    1.544728E-03	    6.927973E-03	    2.239934E+00	    3.020425E+05	
    1.833342E-04	    6.778074E-03	    9.194756E-02	   -1.000000E+00	    1.878051E-03	    1.600000E-03	    8.010000E+02	    1.544728E-03	    6.927973E-03	    2.239934E+00	    3.020425E+05	
    5.766066E-04	    6.765865E-03	    9.180834E-02	   -1.000000E+00	    1.877178E-03	    1.600000E-03	    8.010000E+02	    1.539879E-03	    6.921638E-03	    2.242880E+00	    3.024147E+05	
    1.025671E-03	    6.736419E-03	    9.146755E-02	   -1.000000E+00	    1.875066E-03	    1.600000E-03	    8.010000E+02	    1.528145E-03	    6.905946E-03	    2.249867E+00	    3.032866E+05	
    1.535290E-03	    6.682827E-03	    9.084367E-02	   -1.000000E+00	    1.871229E-03	    1.600000E-03	    8.010000E+02	    1.506829E-03	    6.877063E-03	    2.262649E+00	    3.048667E+05	
    2.108879E-03	    6.596499E-03	    8.983389E-02	   -1.000000E+00	    1.865080E-03	    1.600000E-03	    8.010000E+02	    1.472665E-03	    6.830095E-03	    2.283624E+00	    3.074240E+05	
    2.747483E-03	    6.467265E-03	    8.831383E-02	   -1.000000E+00	    1.855954E-03	    1.600000E-03	    8.010000E+02	    1.421966E-03	    6.759002E-03	    2.316065E+00	    3.112975E+05	
    3.448514E-03	    6.283873E-03	    8.614118E-02	   -1.000000E+00	    1.843181E-03	    1.600000E-03	    8.010000E+02	    1.351004E-03	    6.656683E-03	    2.364471E+00	    3.168994E+05	
    4.204388E-03	    6.035100E-03	    8.316575E-02	   -1.000000E+00	    1.826208E-03	    1.600000E-03	    8.010000E+02	    1.256711E-03	    6.515333E-03	    2.435078E+00	    3.247073E+05	
    5.001395E-03	    5.711600E-03	    7.924824E-02	   -1.000000E+00	    1.804796E-03	    1.600000E-03	    8.010000E+02	    1.137756E-03	    6.327278E-03	    2.536645E+00	    3.352341E+05	
    5.819326E-03	    5.308450E-03	    7.428913E-02	   -1.000000E+00	    1.779256E-03	    1.600000E-03	    8.010000E+02	    9.958687E-04	    6.086464E-03	    2.681656E+00	    3.489621E+05	
    6.632422E-03	    4.827934E-03	    6.826500E-02	   -1.000000E+00	    1.750657E-03	    1.600000E-03	    8.010000E+02	    8.369820E-04	    5.790685E-03	    2.888144E+00	    3.662249E+05	
    7.411989E-03	    4.281687E-03	    6.126476E-02	   -1.000000E+00	    1.720858E-03	    1.600000E-03	    8.010000E+02	    6.714343E-04	    5.444251E-03	    3.182349E+00	    3.870350E+05	
    8.130429E-03	    3.691077E-03	    5.351212E-02	   -1.000000E+00	    1.692230E-03	    1.600000E-03	    8.010000E+02	    5.123913E-04	    5.060041E-03	    3.602312E+00	    4.108883E+05	
    8.765637E-03	    3.085053E-03	    4.535831E-02	   -1.000000E+00	    1.667027E-03	    1.600000E-03	    8.010000E+02	    3.723748E-04	    4.658914E-03	    4.202078E+00	    4.366537E+05	
    9.304334E-03	    2.495609E-03	    3.723573E-02	   -1.000000E+00	    1.646681E-03	    1.600000E-03	    8.010000E+02	    2.593374E-04	    4.264523E-03	    5.055345E+00	    4.627507E+05	
    9.743178E-03	    1.952167E-03	    2.957928E-02	   -1.000000E+00	    1.631459E-03	    1.600000E-03	    8.010000E+02	    1.747705E-04	    3.894518E-03	    6.256252E+00	    4.877843E+05	
    1.008752E-02	    1.476721E-03	    2.274308E-02	   -1.000000E+00	    1.620705E-03	    1.600000E-03	    8.010000E+02	    1.150292E-04	    3.553676E-03	    7.914485E+00	    5.113704E+05	
    1.034864E-02	    1.081198E-03	    1.694502E-02	   -1.000000E+00	    1.613381E-03	    1.600000E-03	    8.010000E+02	    7.433998E-05	    3.233720E-03	    1.014045E+01	    5.342591E+05	
    1.054061E-02	    7.674689E-04	    1.225333E-02	   -1.000000E+00	    1.608496E-03	    1.600000E-03	    8.010000E+02	    4.720193E-05	    2.919002E-03	    1.301320E+01	    5.573312E+05	
    1.067783E-02	    5.294179E-04	    8.609635E-03	   -1.000000E+00	    1.605285E-03	    1.600000E-03	    8.010000E+02	    2.935979E-05	    2.593942E-03	    1.652124E+01	    5.800029E+05	
    1.077338E-02	    3.559897E-04	    5.871652E-03	   -1.000000E+00	    1.603204E-03	    1.600000E-03	    8.010000E+02	    1.780219E-05	    2.246816E-03	    2.044263E+01	    5.977445E+05	
    1.083833E-02	    2.341840E-04	    3.859419E-03	   -1.000000E+00	    1.601881E-03	    1.600000E-03	    8.010000E+02	    1.044786E-05	    1.868416E-03	    2.408768E+01	    5.974599E+05	
    1.088150E-02	    1.513459E-04	    2.397514E-03	   -1.000000E+00	    1.601062E-03	    1.600000E-03	    8.010000E+02	    5.900745E-06	    1.466533E-03	    2.627554E+01	    5.524558E+05	
    1.090963E-02	    9.653467E-05	    1.337257E-03	   -1.000000E+00	    1.600641E-03	    1.600000E-03	    8.010000E+02	    3.561609E-06	    1.271301E-03	    3.271340E+01	    4.227307E+05	
    1.092764E-02	    6.107214E-05	    5.449858E-04	   -1.000000E+00	    1.627176E-03	    1.600000E-03	    8.010000E+02	    1.509800E-04	    3.553843E-03	    6.030484E+00	    1.735422E+05	
    1.093398E-02	    4.850483E-05	    0.000000E+00	    0.000000E+00	    1.000000E-03	    1.000000E-03	    1.000000E+03	    0.000000E+00	    0.000000E+00	    0.000000E+00	    0.000000E+00	
   -1.093327E-02	    4.813925E-05	    0.000000E+00	    0.000000E+00	    1.000000E-03	    1.000000E-03	    1.000000E+03	    0.000000E+00	    0.000000E+00	    0.000000E+00	    0.000000E+00	
   -1.092674E-02	    6.061082E-05	    9.615309E-04	   -1.000000E+00	    1.627118E-03	    1.600000E-03	    8.010000E+02	    1.506583E-04	    3.539238E-03	    5.993789E+00	    1.736472E+05	