Title="Fields"
Variables="X""Y""Velocity""Phi""Effective Viscosity""Dynamic Viscosity""Density""Eddy Viscosity""K""Omega""S"
Zone I=52 J=52 F=POINT
   -1.214864E-02	    6.022430E-05	    0.000000E+00	    0.000000E+00	    1.000000E-03	    1.000000E-03	    1.000000E+03	    0.000000E+00	    0.000000E+00	    0.000000E+00	    0.000000E+00	
   -1.214840E-02	    7.587059E-05	    0.000000E+00	    0.000000E+00	    1.000000E-03	    1.000000E-03	    1.000000E+03	    0.000000E+00	    0.000000E+00	    0.000000E+00	    0.000000E+00	
   -1.214760E-02	    1.201162E-04	    0.000000E+00	    0.000000E+00	    1.000000E-03	    1.000000E-03	    1.000000E+03	    0.000000E+00	    0.000000E+00	    0.000000E+00	    0.000000E+00	
   -1.214604E-02	    1.887791E-04	    0.000000E+00	    0.000000E+00	    1.000000E-03	    1.000000E-03	    1.000000E+03	    0.000000E+00	    0.000000E+00	    0.000000E+00	    0.000000E+00	
   -1.214292E-02	    2.931943E-04	    0.000000E+00	    0.000000E+00	    1.000000E-03	    1.000000E-03	    1.000000E+03	    0.000000E+00	    0.000000E+00	    0.000000E+00	    0.000000E+00	
   -1.213664E-02	    4.481479E-04	    0.000000E+00	    0.000000E+00	    1.000000E-03	    1.000000E-03	    1.000000E+03	    0.000000E+00	    0.000000E+00	    0.000000E+00	    0.000000E+00	
   -1.212408E-02	    6.717413E-04	    0.000000E+00	    0.000000E+00	    1.000000E-03	    1.000000E-03	    1.000000E+03	    0.000000E+00	    0.000000E+00	    0.000000E+00	    0.000000E+00	
   -1.209956E-02	    9.844691E-04	    0.000000E+00	    0.000000E+00	    1.000000E-03	    1.000000E-03	    1.000000E+03	    0.000000E+00	    0.000000E+00	    0.000000E+00	    0.000000E+00	
   -1.205344E-02	    1.407248E-03	    0.000000E+00	    0.000000E+00	    1.000000E-03	    1.000000E-03	    1.000000E+03	    0.000000E+00	    0.000000E+00	    0.000000E+00	    0.000000E+00	
   -1.197068E-02	    1.958259E-03	    0.000000E+00	    0.000000E+00	    1.000000E-03	    1.000000E-03	    1.000000E+03	    0.000000E+00	    0.000000E+00	    0.000000E+00	    0.000000E+00	
   -1.182998E-02	    2.648730E-03	    0.000000E+00	    0.000000E+00	    1.000000E-03	    1.000000E-03	    1.000000E+03	    0.000000E+00	    0.000000E+00	    0.000000E+00	    0.000000E+00	
   -1.160451E-02	    3.478208E-03	    0.000000E+00	    0.000000E+00	    1.000000E-03	    1.000000E-03	    1.000000E+03	    0.000000E+00	    0.000000E+00	    0.000000E+00	    0.000000E+00	
   -1.126508E-02	    4.430482E-03	    0.000000E+00	    0.000000E+00	    1.000000E-03	    1.000000E-03	    1.000000E+03	    0.000000E+00	    0.000000E+00	    0.000000E+00	    0.000000E+00	
   -1.078595E-02	    5.471869E-03	    0.000000E+00	    0.000000E+00	    1.000000E-03	    1.000000E-03	    1.000000E+03	    0.000000E+00	    0.000000E+00	    0.000000E+00	    0.000000E+00	
   -1.015216E-02	    6.553542E-03	    0.000000E+00	    0.000000E+00	    1.000000E-03	    1.000000E-03	    1.000000E+03	    0.000000E+00	    0.000000E+00	    0.000000E+00	    0.000000E+00	
   -9.365676E-03	    7.618437E-03	    0.000000E+00	    0.000000E+00	    1.000000E-03	    1.000000E-03	    1.000000E+03	    0.000000E+00	    0.000000E+00	    0.000000E+00	    0.000000E+00	
   -8.447592E-03	    8.611236E-03	    0.000000E+00	    0.000000E+00	    1.000000E-03	    1.000000E-03	    1.000000E+03	    0.000000E+00	    0.000000E+00	    0.000000E+00	    0.000000E+00	
   -7.434908E-03	    9.488112E-03	    0.000000E+00	    0.000000E+00	    1.000000E-03	    1.000000E-03	    1.000000E+03	    0.000000E+00	    0.000000E+00	    0.000000E+00	    0.000000E+00	
   -6.373132E-03	    1.022286E-02	    0.000000E+00	    0.000000E+00	    1.000000E-03	    1.000000E-03	    1.000000E+03	    0.000000E+00	    0.000000E+00	    0.000000E+00	    0.000000E+00	
   -5.307702E-03	    1.080785E-02	    0.000000E+00	    0.000000E+00	    1.000000E-03	    1.000000E-03	    1.000000E+03	    0.000000E+00	    0.000000E+00	    0.000000E+00	    0.000000E+00	
   -4.277189E-03	    1.125075E-02	    0.000000E+00	    0.000000E+00	    1.000000E-03	    1.000000E-03	    1.000000E+03	    0.000000E+00	    0.000000E+00	    0.000000E+00	    0.000000E+00	
   -3.309761E-03	    1.156901E-02	    0.000000E+00	    0.000000E+00	    1.000000E-03	    1.000000E-03	    1.000000E+03	    0.000000E+00	    0.000000E+00	    0.000000E+00	    0.000000E+00	
   -2.422724E-03	    1.178450E-02	    0.000000E+00	    0.000000E+00	    1.000000E-03	    1.000000E-03	    1.000000E+03	    0.000000E+00	    0.000000E+00	    0.000000E+00	    0.000000E+00	
   -1.624046E-03	    1.191947E-02	    0.000000E+00	    0.000000E+00	    1.000000E-03	    1.000000E-03	    1.000000E+03	    0.000000E+00	    0.000000E+00	    0.000000E+00	    0.000000E+00	
   -9.147101E-04	    1.199402E-02	    0.000000E+00	    0.000000E+00	    1.000000E-03	    1.000000E-03	    1.000000E+03	    0.000000E+00	    0.000000E+00	    0.000000E+00	    0.000000E+00	
   -2.910617E-04	    1.202501E-02	    0.000000E+00	    0.000000E+00	    1.000000E-03	    1.000000E-03	    1.000000E+03	    0.000000E+00	    0.000000E+00	    0.000000E+00	    0.000000E+00	
    2.910617E-04	    1.202501E-02	    0.000000E+00	    0.000000E+00	    1.000000E-03	    1.000000E-03	    1.000000E+03	    0.000000E+00	    0.000000E+00	    0.000000E+00	    0.000000E+00	
    9.147101E-04	    1.199402E-02	    0.000000E+00	    0.000000E+00	    1.000000E-03	    1.000000E-03	    1.000000E+03	    0.000000E+00	    0.000000E+00	    0.000000E+00	    0.000000E+00	
    1.624046E-03	    1.191947E-02	    0.000000E+00	    0.000000E+00	    1.000000E-03	    1.000000E-03	    1.000000E+03	    0.000000E+00	    0.000000E+00	    0.000000E+00	    0.000000E+00	
    2.422724E-03	    1.178450E-02	    0.000000E+00	    0.000000E+00	    1.000000E-03	    1.000000E-03	    1.000000E+03	    0.000000E+00	    0.000000E+00	    0.000000E+00	    0.000000E+00	
    3.309761E-03	    1.156901E-02	    0.000000E+00	    0.000000E+00	    1.000000E-03	    1.000000E-03	    1.000000E+03	    0.000000E+00	    0.000000E+00	    0.000000E+00	    0.000000E+00	
    4.277189E-03	    1.125075E-02	    0.000000E+00	    0.000000E+00	    1.000000E-03	    1.000000E-03	    1.000000E+03	    0.000000E+00	    0.000000E+00	    0.000000E+00	    0.000000E+00	
    5.307702E-03	    1.080785E-02	    0.000000E+00	    0.000000E+00	    1.000000E-03	    1.000000E-03	    1.000000E+03	    0.000000E+00	    0.000000E+00	    0.000000E+00	    0.000000E+00	
    6.373132E-03	    1.022286E-02	    0.000000E+00	    0.000000E+00	    1.000000E-03	    1.000000E-03	    1.000000E+03	    0.000000E+00	    0.000000E+00	    0.000000E+00	    0.000000E+00	
    7.434908E-03	    9.488112E-03	    0.000000E+00	    0.000000E+00	    1.000000E-03	    1.000000E-03	    1.000000E+03	    0.000000E+00	    0.000000E+00	    0.000000E+00	    0.000000E+00	
    8.447592E-03	    8.611236E-03	    0.000000E+00	    0.000000E+00	    1.000000E-03	    1.000000E-03	    1.000000E+03	    0.000000E+00	    0.000000E+00	    0.000000E+00	    0.000000E+00	
    9.365676E-03	    7.618437E-03	    0.000000E+00	    0.000000E+00	    1.000000E-03	    1.000000E-03	    1.000000E+03	    0.000000E+00	    0.000000E+00	    0.000000E+00	    0.000000E+00	
    1.015216E-02	    6.553542E-03	    0.000000E+00	    0.000000E+00	    1.000000E-03	    1.000000E-03	    1.000000E+03	    0.000000E+00	    0.000000E+00	    0.000000E+00	    0.000000E+00	
    1.078595E-02	    5.471869E-03	    0.000000E+00	    0.000000E+00	    1.000000E-03	    1.000000E-03	    1.000000E+03	    0.000000E+00	    0.000000E+00	    0.000000E+00	    0.000000E+00	
    1.126508E-02	    4.430482E-03	    0.000000E+00	    0.000000E+00	    1.000000E-03	    1.000000E-03	    1.000000E+03	    0.000000E+00	    0.000000E+00	    0.000000E+00	    0.000000E+00	
    1.160451E-02	    3.478208E-03	    0.000000E+00	    0.000000E+00	    1.000000E-03	    1.000000E-03	    1.000000E+03	    0.000000E+00	    0.000000E+00	    0.000000E+00	    0.000000E+00	
    1.182998E-02	    2.648730E-03	    0.000000E+00	    0.000000E+00	    1.000000E-03	    1.000000E-03	    1.000000E+03	    0.000000E+00	    0.000000E+00	    0.000000E+00	    0.000000E+00	
    1.197068E-02	    1.958259E-03	    0.000000E+00	    0.000000E+00	    1.000000E-03	    1.000000E-03	    1.000000E+03	    0.000000E+00	    0.000000E+00	    0.000000E+00	    0.000000E+00	
    1.205344E-02	    1.407248E-03	    0.000000E+00	    0.000000E+00	    1.000000E-03	    1.000000E-03	    1.000000E+03	    0.000000E+00	    0.000000E+00	    0.000000E+00	    0.000000E+00	
    1.209956E-02	    9.844691E-04	    0.000000E+00	    0.000000E+00	    1.000000E-03	    1.000000E-03	    1.000000E+03	    0.000000E+00	    0.000000E+00	    0.000000E+00	    0.000000E+00	
    1.212408E-02	    6.717413E-04	    0.000000E+00	    0.000000E+00	    1.000000E-03	    1.000000E-03	    1.000000E+03	    0.000000E+00	    0.000000E+00	    0.000000E+00	    0.000000E+00	
    1.213664E-02	    4.481479E-04	    0.000000E+00	    0.000000E+00	    1.000000E-03	    1.000000E-03	    1.000000E+03	    0.000000E+00	    0.000000E+00	    0.000000E+00	    0.000000E+00	
    1.214292E-02	    2.931943E-04	    0.000000E+00	    0.000000E+00	    1.000000E-03	    1.000000E-03	    1.000000E+03	    0.000000E+00	    0.000000E+00	    0.000000E+00	    0.000000E+00	
    1.214604E-02	    1.887791E-04	    0.000000E+00	    0.000000E+00	    1.000000E-03	    1.000000E-03	    1.000000E+03	    0.000000E+00	    0.000000E+00	    0.000000E+00	    0.000000E+00	
    1.214760E-02	    1.201162E-04	    0.000000E+00	    0.000000E+00	    1.000000E-03	    1.000000E-03	    1.000000E+03	    0.000000E+00	    0.000000E+00	    0.000000E+00	    0.000000E+00	
    1.214840E-02	    7.587059E-05	    0.000000E+00	    0.000000E+00	    1.000000E-03	    1.000000E-03	    1.000000E+03	    0.000000E+00	    0.000000E+00	    0.000000E+00	    0.000000E+00	
    1.214864E-02	    6.022430E-05	    0.000000E+00	    0.000000E+00	    1.000000E-03	    1.000000E-03	    1.000000E+03	    0.000000E+00	    0.000000E+00	    0.000000E+00	    0.000000E+00	
   -1.214823E-02	    6.021683E-05	    0.000000E+00	    0.000000E+00	    1.000000E-03	    1.000000E-03	    1.000000E+03	    0.000000E+00	    0.000000E+00	    0.000000E+00	    0.000000E+00	
   -1.214788E-02	    7.586052E-05	    4.731314E-05	   -1.000000E+00	    1.000432E-03	    1.000000E-03	    1.000000E+03	    1.962617E-06	    2.902167E-04	    1.478723E+05	    8.459171E+03	
   -1.214679E-02	    1.200973E-04	    1.481715E-04	   -1.000000E+00	    1.000440E-03	    1.000000E-03	    1.000000E+03	    2.001881E-06	    1.204711E-04	    6.017892E+04	    3.325926E+04	
   -1.214476E-02	    1.887422E-04	    2.784862E-04	   -1.000000E+00	    1.000732E-03	    1.000000E-03	    1.000000E+03	    3.328921E-06	    1.348729E-04	    4.051550E+04	    4.754639E+04	
   -1.214094E-02	    2.931200E-04	    4.601531E-04	   -1.000000E+00	    1.001321E-03	    1.000000E-03	    1.000000E+03	    6.003959E-06	    1.818926E-04	    3.029544E+04	    5.377749E+04	
   -1.213361E-02	    4.479957E-04	    7.209935E-04	   -1.000000E+00	    1.002308E-03	    1.000000E-03	    1.000000E+03	    1.048919E-05	    2.376452E-04	    2.265621E+04	    5.644358E+04	
   -1.211955E-02	    6.714295E-04	    1.095322E-03	   -1.000000E+00	    1.003888E-03	    1.000000E-03	    1.000000E+03	    1.767195E-05	    3.002667E-04	    1.699115E+04	    5.787120E+04	
   -1.209293E-02	    9.838410E-04	    1.622384E-03	   -1.000000E+00	    1.006316E-03	    1.000000E-03	    1.000000E+03	    2.870874E-05	    3.690133E-04	    1.285369E+04	    5.894458E+04	
   -1.204401E-02	    1.406019E-03	    2.342132E-03	   -1.000000E+00	    1.009877E-03	    1.000000E-03	    1.000000E+03	    4.489467E-05	    4.417417E-04	    9.839514E+03	    5.986653E+04	
   -1.195765E-02	    1.955950E-03	    3.289387E-03	   -1.000000E+00	    1.014846E-03	    1.000000E-03	    1.000000E+03	    6.748081E-05	    5.155531E-04	    7.639995E+03	    6.061131E+04	
   -1.181256E-02	    2.644593E-03	    4.486053E-03	   -1.000000E+00	    1.021433E-03	    1.000000E-03	    1.000000E+03	    9.742119E-05	    5.875583E-04	    6.031114E+03	    6.109869E+04	
   -1.158209E-02	    3.471175E-03	    5.932205E-03	   -1.000000E+00	    1.029716E-03	    1.000000E-03	    1.000000E+03	    1.350722E-04	    6.553001E-04	    4.851482E+03	    6.124799E+04	
   -1.123737E-02	    4.419185E-03	    7.598608E-03	   -1.000000E+00	    1.039581E-03	    1.000000E-03	    1.000000E+03	    1.799115E-04	    7.169110E-04	    3.984799E+03	    6.100654E+04	
   -1.075321E-02	    5.454763E-03	    9.424032E-03	   -1.000000E+00	    1.050685E-03	    1.000000E-03	    1.000000E+03	    2.303866E-04	    7.711578E-04	    3.347235E+03	    6.037635E+04	
   -1.011527E-02	    6.529136E-03	    1.132026E-02	   -1.000000E+00	    1.062481E-03	    1.000000E-03	    1.000000E+03	    2.840041E-04	    8.174444E-04	    2.878283E+03	    5.943015E+04	
   -9.326135E-03	    7.585587E-03	    1.318509E-02	   -1.000000E+00	    1.074294E-03	    1.000000E-03	    1.000000E+03	    3.377002E-04	    8.557525E-04	    2.534060E+03	    5.829648E+04	
   -8.407302E-03	    8.569391E-03	    1.492049E-02	   -1.000000E+00	    1.085449E-03	    1.000000E-03	    1.000000E+03	    3.884061E-04	    8.865377E-04	    2.282502E+03	    5.712019E+04	
   -7.395856E-03	    9.437422E-03	    1.644994E-02	   -1.000000E+00	    1.095396E-03	    1.000000E-03	    1.000000E+03	    4.336162E-04	    9.105806E-04	    2.099969E+03	    5.602221E+04	
   -6.337080E-03	    1.016411E-02	    1.772867E-02	   -1.000000E+00	    1.103787E-03	    1.000000E-03	    1.000000E+03	    4.717576E-04	    9.288319E-04	    1.968875E+03	    5.507817E+04	
   -5.275969E-03	    1.074227E-02	    1.874471E-02	   -1.000000E+00	    1.110500E-03	    1.000000E-03	    1.000000E+03	    5.022720E-04	    9.422869E-04	    1.876049E+03	    5.431880E+04	
   -4.250575E-03	    1.117974E-02	    1.951254E-02	   -1.000000E+00	    1.115599E-03	    1.000000E-03	    1.000000E+03	    5.254496E-04	    9.518958E-04	    1.811584E+03	    5.374203E+04	
   -3.288589E-03	    1.149396E-02	    2.006336E-02	   -1.000000E+00	    1.119271E-03	    1.000000E-03	    1.000000E+03	    5.421387E-04	    9.585077E-04	    1.768012E+03	    5.332704E+04	
   -2.406939E-03	    1.170666E-02	    2.043571E-02	   -1.000000E+00	    1.121759E-03	    1.000000E-03	    1.000000E+03	    5.534516E-04	    9.628431E-04	    1.739706E+03	    5.304533E+04	
   -1.613344E-03	    1.183985E-02	    2.066843E-02	   -1.000000E+00	    1.123318E-03	    1.000000E-03	    1.000000E+03	    5.605382E-04	    9.654899E-04	    1.722434E+03	    5.286764E+04	
   -9.086451E-04	    1.191341E-02	    2.079649E-02	   -1.000000E+00	    1.124179E-03	    1.000000E-03	    1.000000E+03	    5.644477E-04	    9.669124E-04	    1.713024E+03	    5.276760E+04	
   -2.891269E-04	    1.194400E-02	    2.084906E-02	   -1.000000E+00	    1.124534E-03	    1.000000E-03	    1.000000E+03	    5.660637E-04	    9.674667E-04	    1.709113E+03	    5.272301E+04	
    2.891269E-04	    1.194400E-02	    2.084906E-02	   -1.000000E+00	    1.124534E-03	    1.000000E-03	    1.000000E+03	    5.660637E-04	    9.674667E-04	    1.709113E+03	    5.272301E+04	
    9.086451E-04	    1.191341E-02	    2.079649E-02	   -1.000000E+00	    1.124179E-03	    1.000000E-03	    1.000000E+03	    5.644477E-04	    9.669124E-04	    1.713024E+03	    5.276760E+04	
    1.613344E-03	    1.183985E-02	    2.066843E-02	   -1.000000E+00	    1.123318E-03	    1.000000E-03	    1.000000E+03	    5.605382E-04	    9.654899E-04	    1.722434E+03	    5.286764E+04	
    2.406939E-03	    1.170666E-02	    2.043571E-02	   -1.000000E+00	    1.121759E-03	    1.000000E-03	    1.000000E+03	    5.534516E-04	    9.628431E-04	    1.739706E+03	    5.304533E+04	
    3.288589E-03	    1.149396E-02	    2.006336E-02	   -1.000000E+00	    1.119271E-03	    1.000000E-03	    1.000000E+03	    5.421387E-04	    9.585077E-04	    1.768012E+03	    5.332704E+04	
    4.250575E-03	    1.117974E-02	    1.951254E-02	   -1.000000E+00	    1.115599E-03	    1.000000E-03	    1.000000E+03	    5.254496E-04	    9.518958E-04	    1.811584E+03	    5.374203E+04	
    5.275969E-03	    1.074227E-02	    1.874471E-02	   -1.000000E+00	    1.110500E-03	    1.000000E-03	    1.000000E+03	    5.022720E-04	    9.422869E-04	    1.876049E+03	    5.431880E+04	
    6.337080E-03	    1.016411E-02	    1.772867E-02	   -1.000000E+00	    1.103787E-03	    1.000000E-03	    1.000000E+03	    4.717576E-04	    9.288319E-04	    1.968875E+03	    5.507817E+04	
    7.395856E-03	    9.437422E-03	    1.644994E-02	   -1.000000E+00	    1.095396E-03	    1.000000E-03	    1.000000E+03	    4.336162E-04	    9.105806E-04	    2.099969E+03	    5.602221E+04	
    8.407302E-03	    8.569391E-03	    1.492049E-02	   -1.000000E+00	    1.085449E-03	    1.000000E-03	    1.000000E+03	    3.884061E-04	    8.865377E-04	    2.282502E+03	    5.712019E+04	
    9.326135E-03	    7.585587E-03	    1.318509E-02	   -1.000000E+00	    1.074294E-03	    1.000000E-03	    1.000000E+03	    3.377002E-04	    8.557525E-04	    2.534060E+03	    5.829648E+04	
    1.011527E-02	    6.529136E-03	    1.132026E-02	   -1.000000E+00	    1.062481E-03	    1.000000E-03	    1.000000E+03	    2.840041E-04	    8.174444E-04	    2.878283E+03	    5.943015E+04	
    1.075321E-02	    5.454763E-03	    9.424032E-03	   -1.000000E+00	    1.050685E-03	    1.000000E-03	    1.000000E+03	    2.303866E-04	    7.711578E-04	    3.347235E+03	    6.037635E+04	
    1.123737E-02	    4.419185E-03	    7.598608E-03	   -1.000000E+00	    1.039581E-03	    1.000000E-03	    1.000000E+03	    1.799115E-04	    7.169110E-04	    3.984799E+03	    6.100654E+04	
    1.158209E-02	    3.471175E-03	    5.932205E-03	   -1.000000E+00	    1.029716E-03	    1.000000E-03	    1.000000E+03	    1.350722E-04	    6.553001E-04	    4.851482E+03	    6.124799E+04	
    1.181256E-02	    2.644593E-03	    4.486053E-03	   -1.000000E+00	    1.021433E-03	    1.000000E-03	    1.000000E+03	    9.742119E-05	    5.875583E-04	    6.031114E+03	    6.109869E+04	
    1.195765E-02	    1.955950E-03	    3.289387E-03	   -1.000000E+00	    1.014846E-03	    1.000000E-03	    1.000000E+03	    6.748081E-05	    5.155531E-04	    7.639995E+03	    6.061131E+04	
    1.204401E-02	    1.406019E-03	    2.342132E-03	   -1.000000E+00	    1.009877E-03	    1.000000E-03	    1.000000E+03	    4.489467E-05	    4.417417E-04	    9.839514E+03	    5.986653E+04	
    1.209293E-02	    9.838410E-04	    1.622384E-03	   -1.000000E+00	    1.006316E-03	    1.000000E-03	    1.000000E+03	    2.870874E-05	    3.690133E-04	    1.285369E+04	    5.894458E+04	
    1.211955E-02	    6.714295E-04	    1.095322E-03	   -1.000000E+00	    1.003888E-03	    1.000000E-03	    1.000000E+03	    1.767195E-05	    3.002667E-04	    1.699115E+04	    5.787120E+04	
    1.213361E-02	    4.479957E-04	    7.209935E-04	   -1.000000E+00	    1.002308E-03	    1.000000E-03	    1.000000E+03	    1.048919E-05	    2.376452E-04	    2.265621E+04	    5.644358E+04	
    1.214094E-02	    2.931200E-04	    4.601531E-04	   -1.000000E+00	    1.001321E-03	    1.000000E-03	    1.000000E+03	    6.003959E-06	    1.818926E-04	    3.029544E+04	    5.377749E+04	
    1.214476E-02	    1.887422E-04	    2.784862E-04	   -1.000000E+00	    1.000732E-03	    1.000000E-03	    1.000000E+03	    3.328921E-06	    1.348729E-04	    4.051550E+04	    4.754639E+04	
    1.214679E-02	    1.200973E-04	    1.481715E-04	   -1.000000E+00	    1.000440E-03	    1.000000E-03	    1.000000E+03	    2.001881E-06	    1.204711E-04	    6.017892E+04	    3.325926E+04	
    1.214788E-02	    7.586052E-05	    4.731314E-05	   -1.000000E+00	    1.000432E-03	    1.000000E-03	    1.000000E+03	    1.962617E-06	    2.902167E-04	    1.478723E+05	    8.459171E+03	
    1.214823E-02	    6.021683E-05	    0.000000E+00	    0.000000E+00	    1.000000E-03	    1.000000E-03	    1.000000E+03	    0.000000E+00	    0.000000E+00	    0.000000E+00	    0.000000E+00	
   -1.214729E-02	    6.018900E-05	    0.000000E+00	    0.000000E+00	    1.000000E-03	    1.000000E-03	    1.000000E+03	    0.000000E+00	    0.000000E+00	    0.000000E+00	    0.000000E+00	
   -1.214670E-02	    7.582392E-05	    1.561096E-04	   -1.000000E+00	    1.013166E-03	    1.000000E-03	    1.000000E+03	    5.984592E-05	    2.901087E-04	    4.847594E+03	    8.416686E+03	
   -1.214491E-02	    1.200325E-04	    4.907806E-04	   -1.000000E+00	    1.000461E-03	    1.000000E-03	    1.000000E+03	    2.094293E-06	    1.122297E-04	    5.358836E+04	    3.325351E+04	
   -1.214181E-02	    1.886237E-04	    9.221564E-04	   -1.000000E+00	    1.000740E-03	    1.000000E-03	    1.000000E+03	    3.364789E-06	    1.185763E-04	    3.524034E+04	    4.749119E+04	
   -1.213636E-02	    2.928967E-04	    1.522844E-03	   -1.000000E+00	    1.001334E-03	    1.000000E-03	    1.000000E+03	    6.065847E-06	    1.526197E-04	    2.516050E+04	    5.366059E+04	
   -1.212662E-02	    4.475651E-04	    2.383832E-03	   -1.000000E+00	    1.002346E-03	    1.000000E-03	    1.000000E+03	    1.066469E-05	    1.897612E-04	    1.779341E+04	    5.623586E+04	
   -1.210908E-02	    6.705914E-04	    3.616128E-03	   -1.000000E+00	    1.004002E-03	    1.000000E-03	    1.000000E+03	    1.819223E-05	    2.274020E-04	    1.249995E+04	    5.752158E+04	
   -1.207763E-02	    9.822180E-04	    5.344185E-03	   -1.000000E+00	    1.006646E-03	    1.000000E-03	    1.000000E+03	    3.021005E-05	    2.653765E-04	    8.784379E+03	    5.836803E+04	
   -1.202224E-02	    1.402938E-03	    7.689708E-03	   -1.000000E+00	    1.010785E-03	    1.000000E-03	    1.000000E+03	    4.902361E-05	    3.044738E-04	    6.210759E+03	    5.892025E+04	
   -1.192760E-02	    1.950285E-03	    1.074926E-02	   -1.000000E+00	    1.017193E-03	    1.000000E-03	    1.000000E+03	    7.815168E-05	    3.473445E-04	    4.444492E+03	    5.904822E+04	
   -1.177247E-02	    2.634602E-03	    1.456493E-02	   -1.000000E+00	    1.027058E-03	    1.000000E-03	    1.000000E+03	    1.229902E-04	    3.985398E-04	    3.240419E+03	    5.849794E+04	
   -1.153055E-02	    3.454397E-03	    1.909225E-02	   -1.000000E+00	    1.042053E-03	    1.000000E-03	    1.000000E+03	    1.911517E-04	    4.631567E-04	    2.422979E+03	    5.698066E+04	
   -1.117378E-02	    4.392487E-03	    2.417821E-02	   -1.000000E+00	    1.064090E-03	    1.000000E-03	    1.000000E+03	    2.913167E-04	    5.444449E-04	    1.868911E+03	    5.436032E+04	
   -1.067819E-02	    5.414629E-03	    2.956688E-02	   -1.000000E+00	    1.094529E-03	    1.000000E-03	    1.000000E+03	    4.296786E-04	    6.415104E-04	    1.493001E+03	    5.084392E+04	
   -1.003092E-02	    6.472204E-03	    3.494279E-02	   -1.000000E+00	    1.133162E-03	    1.000000E-03	    1.000000E+03	    6.052834E-04	    7.487149E-04	    1.236966E+03	    4.692114E+04	
   -9.235913E-03	    7.509312E-03	    3.999856E-02	   -1.000000E+00	    1.177733E-03	    1.000000E-03	    1.000000E+03	    8.078760E-04	    8.574891E-04	    1.061412E+03	    4.310230E+04	
   -8.315535E-03	    8.472593E-03	    4.449622E-02	   -1.000000E+00	    1.224507E-03	    1.000000E-03	    1.000000E+03	    1.020487E-03	    9.593869E-04	    9.401268E+02	    3.973089E+04	
   -7.307050E-03	    9.320514E-03	    4.829800E-02	   -1.000000E+00	    1.269486E-03	    1.000000E-03	    1.000000E+03	    1.224937E-03	    1.048379E-03	    8.558636E+02	    3.695656E+04	
   -6.255204E-03	    1.002892E-02	    5.136411E-02	   -1.000000E+00	    1.309490E-03	    1.000000E-03	    1.000000E+03	    1.406771E-03	    1.121551E-03	    7.972521E+02	    3.479038E+04	
   -5.203978E-03	    1.059161E-02	    5.373015E-02	   -1.000000E+00	    1.342676E-03	    1.000000E-03	    1.000000E+03	    1.557617E-03	    1.178623E-03	    7.566831E+02	    3.316909E+04	
   -4.190247E-03	    1.101682E-02	    5.547839E-02	   -1.000000E+00	    1.368510E-03	    1.000000E-03	    1.000000E+03	    1.675045E-03	    1.221022E-03	    7.289488E+02	    3.200107E+04	
   -3.240621E-03	    1.132195E-02	    5.671202E-02	   -1.000000E+00	    1.387419E-03	    1.000000E-03	    1.000000E+03	    1.760995E-03	    1.251013E-03	    7.104013E+02	    3.119226E+04	
   -2.371191E-03	    1.152836E-02	    5.753638E-02	   -1.000000E+00	    1.400374E-03	    1.000000E-03	    1.000000E+03	    1.819880E-03	    1.271069E-03	    6.984359E+02	    3.065839E+04	
   -1.589115E-03	    1.165755E-02	    5.804769E-02	   -1.000000E+00	    1.408542E-03	    1.000000E-03	    1.000000E+03	    1.857010E-03	    1.283504E-03	    6.911669E+02	    3.032910E+04	
   -8.949153E-04	    1.172889E-02	    5.832766E-02	   -1.000000E+00	    1.413065E-03	    1.000000E-03	    1.000000E+03	    1.877569E-03	    1.290299E-03	    6.872178E+02	    3.014819E+04	
   -2.847470E-04	    1.175854E-02	    5.844217E-02	   -1.000000E+00	    1.414935E-03	    1.000000E-03	    1.000000E+03	    1.886070E-03	    1.293058E-03	    6.855830E+02	    3.007209E+04	
    2.847470E-04	    1.175854E-02	    5.844217E-02	   -1.000000E+00	    1.414935E-03	    1.000000E-03	    1.000000E+03	    1.886070E-03	    1.293058E-03	    6.855830E+02	    3.007209E+04	
    8.949153E-04	    1.172889E-02	    5.832766E-02	   -1.000000E+00	    1.413065E-03	    1.000000E-03	    1.000000E+03	    1.877569E-03	    1.290299E-03	    6.872178E+02	    3.014819E+04	
    1.589115E-03	    1.165755E-02	    5.804769E-02	   -1.000000E+00	    1.408542E-03	    1.000000E-03	    1.000000E+03	    1.857010E-03	    1.283504E-03	    6.911669E+02	    3.032910E+04	
    2.371191E-03	    1.152836E-02	    5.753638E-02	   -1.000000E+00	    1.400374E-03	    1.000000E-03	    1.000000E+03	    1.819880E-03	    1.271069E-03	    6.984359E+02	    3.065839E+04	
    3.240621E-03	    1.132195E-02	    5.671202E-02	   -1.000000E+00	    1.387419E-03	    1.000000E-03	    1.000000E+03	    1.760995E-03	    1.251013E-03	    7.104013E+02	    3.119226E+04	
    4.190247E-03	    1.101682E-02	    5.547839E-02	   -1.000000E+00	    1.368510E-03	    1.000000E-03	    1.000000E+03	    1.675045E-03	    1.221022E-03	    7.289488E+02	    3.200107E+04	
    5.203978E-03	    1.059161E-02	    5.373015E-02	   -1.000000E+00	    1.342676E-03	    1.000000E-03	    1.000000E+03	    1.557617E-03	    1.178623E-03	    7.566831E+02	    3.316909E+04	
    6.255204E-03	    1.002892E-02	    5.136411E-02	   -1.000000E+00	    1.309490E-03	    1.000000E-03	    1.000000E+03	    1.406771E-03	    1.121551E-03	    7.972521E+02	    3.479038E+04	
    7.307050E-03	    9.320514E-03	    4.829800E-02	   -1.000000E+00	    1.269486E-03	    1.000000E-03	    1.000000E+03	    1.224937E-03	    1.048379E-03	    8.558636E+02	    3.695656E+04	
    8.315535E-03	    8.472593E-03	    4.449622E-02	   -1.000000E+00	    1.224507E-03	    1.000000E-03	    1.000000E+03	    1.020487E-03	    9.593869E-04	    9.401268E+02	    3.973089E+04	
    9.235913E-03	    7.509312E-03	    3.999856E-02	   -1.000000E+00	    1.177733E-03	    1.000000E-03	    1.000000E+03	    8.078760E-04	    8.574891E-04	    1.061412E+03	    4.310230E+04	
    1.003092E-02	    6.472204E-03	    3.494279E-02	   -1.000000E+00	    1.133162E-03	    1.000000E-03	    1.000000E+03	    6.052834E-04	    7.487149E-04	    1.236966E+03	    4.692114E+04	
    1.067819E-02	    5.414629E-03	    2.956688E-02	   -1.000000E+00	    1.094529E-03	    1.000000E-03	    1.000000E+03	    4.296786E-04	    6.415104E-04	    1.493001E+03	    5.084392E+04	
    1.117378E-02	    4.392487E-03	    2.417821E-02	   -1.000000E+00	    1.064090E-03	    1.000000E-03	    1.000000E+03	    2.913167E-04	    5.444449E-04	    1.868911E+03	    5.436032E+04	
    1.153055E-02	    3.454397E-03	    1.909225E-02	   -1.000000E+00	    1.042053E-03	    1.000000E-03	    1.000000E+03	    1.911517E-04	    4.631567E-04	    2.422979E+03	    5.698066E+04	
    1.177247E-02	    2.634602E-03	    1.456493E-02	   -1.000000E+00	    1.027058E-03	    1.000000E-03	    1.000000E+03	    1.229902E-04	    3.985398E-04	    3.240419E+03	    5.849794E+04	
    1.192760E-02	    1.950285E-03	    1.074926E-02	   -1.000000E+00	    1.017193E-03	    1.000000E-03	    1.000000E+03	    7.815168E-05	    3.473445E-04	    4.444492E+03	    5.904822E+04	
    1.202224E-02	    1.402938E-03	    7.689708E-03	   -1.000000E+00	    1.010785E-03	    1.000000E-03	    1.000000E+03	    4.902361E-05	    3.044738E-04	    6.210759E+03	    5.892025E+04	
    1.207763E-02	    9.822180E-04	    5.344185E-03	   -1.000000E+00	    1.006646E-03	    1.000000E-03	    1.000000E+03	    3.021005E-05	    2.653765E-04	    8.784379E+03	    5.836803E+04	
    1.210908E-02	    6.705914E-04	    3.616128E-03	   -1.000000E+00	    1.004002E-03	    1.000000E-03	    1.000000E+03	    1.819223E-05	    2.274020E-04	    1.249995E+04	    5.752158E+04	
    1.212662E-02	    4.475651E-04	    2.383832E-03	   -1.000000E+00	    1.002346E-03	    1.000000E-03	    1.000000E+03	    1.066469E-05	    1.897612E-04	    1.779341E+04	    5.623586E+04	
    1.213636E-02	    2.928967E-04	    1.522844E-03	   -1.000000E+00	    1.001334E-03	    1.000000E-03	    1.000000E+03	    6.065847E-06	    1.526197E-04	    2.516050E+04	    5.366059E+04	
    1.214181E-02	    1.886237E-04	    9.221564E-04	   -1.000000E+00	    1.000740E-03	    1.000000E-03	    1.000000E+03	    3.364789E-06	    1.185763E-04	    3.524034E+04	    4.749119E+04	
    1.214491E-02	    1.200325E-04	    4.907806E-04	   -1.000000E+00	    1.000461E-03	    1.000000E-03	    1.000000E+03	    2.094293E-06	    1.122297E-04	    5.358836E+04	    3.325351E+04	
    1.214670E-02	    7.582392E-05	    1.561096E-04	   -1.000000E+00	    1.013166E-03	    1.000000E-03	    1.000000E+03	    5.984592E-05	    2.901087E-04	    4.847594E+03	    8.416686E+03	
    1.214729E-02	    6.018900E-05	    0.000000E+00	    0.000000E+00	    1.000000E-03	    1.000000E-03	    1.000000E+03	    0.000000E+00	    0.000000E+00	    0.000000E+00	    0.000000E+00	
   -1.214606E-02	    6.013027E-05	    0.000000E+00	    0.000000E+00	    1.000000E-03	    1.000000E-03	    1.000000E+03	    0.000000E+00	    0.000000E+00	    0.000000E+00	    0.000000E+00	
   -1.214514E-02	    7.574794E-05	    2.974399E-04	   -1.000000E+00	    1.013173E-03	    1.000000E-03	    1.000000E+03	    5.987925E-05	    2.904986E-04	    4.851406E+03	    8.565099E+03	