Title="Fields"
Variables="X""Y""Velocity""Phi""Effective Viscosity""Dynamic Viscosity""Density""Eddy Viscosity""K""Omega""S"
Zone I=82 J=82 F=POINT
   -1.214864E-02	    6.022430E-05	    0.000000E+00	   -1.000000E+00	    1.000000E-03	    1.000000E-03	    1.000000E+03	    0.000000E+00	    0.000000E+00	    0.000000E+00	    0.000000E+00	
   -1.214850E-02	    6.958711E-05	    0.000000E+00	   -1.000000E+00	    1.000000E-03	    1.000000E-03	    1.000000E+03	    0.000000E+00	    0.000000E+00	    0.000000E+00	    0.000000E+00	
   -1.214811E-02	    9.284917E-05	    0.000000E+00	   -1.000000E+00	    1.000000E-03	    1.000000E-03	    1.000000E+03	    0.000000E+00	    0.000000E+00	    0.000000E+00	    0.000000E+00	
   -1.214753E-02	    1.236630E-04	    0.000000E+00	   -1.000000E+00	    1.000000E-03	    1.000000E-03	    1.000000E+03	    0.000000E+00	    0.000000E+00	    0.000000E+00	    0.000000E+00	
   -1.214664E-02	    1.642119E-04	    0.000000E+00	   -1.000000E+00	    1.000000E-03	    1.000000E-03	    1.000000E+03	    0.000000E+00	    0.000000E+00	    0.000000E+00	    0.000000E+00	
   -1.214528E-02	    2.171613E-04	    0.000000E+00	   -1.000000E+00	    1.000000E-03	    1.000000E-03	    1.000000E+03	    0.000000E+00	    0.000000E+00	    0.000000E+00	    0.000000E+00	
   -1.214317E-02	    2.856999E-04	    0.000000E+00	   -1.000000E+00	    1.000000E-03	    1.000000E-03	    1.000000E+03	    0.000000E+00	    0.000000E+00	    0.000000E+00	    0.000000E+00	
   -1.213991E-02	    3.735571E-04	    0.000000E+00	   -1.000000E+00	    1.000000E-03	    1.000000E-03	    1.000000E+03	    0.000000E+00	    0.000000E+00	    0.000000E+00	    0.000000E+00	
   -1.213485E-02	    4.849849E-04	    0.000000E+00	   -1.000000E+00	    1.000000E-03	    1.000000E-03	    1.000000E+03	    0.000000E+00	    0.000000E+00	    0.000000E+00	    0.000000E+00	
   -1.212706E-02	    6.246949E-04	    0.000000E+00	   -1.000000E+00	    1.000000E-03	    1.000000E-03	    1.000000E+03	    0.000000E+00	    0.000000E+00	    0.000000E+00	    0.000000E+00	
   -1.211518E-02	    7.977369E-04	    0.000000E+00	   -1.000000E+00	    1.000000E-03	    1.000000E-03	    1.000000E+03	    0.000000E+00	    0.000000E+00	    0.000000E+00	    0.000000E+00	
   -1.209726E-02	    1.009312E-03	    0.000000E+00	   -1.000000E+00	    1.000000E-03	    1.000000E-03	    1.000000E+03	    0.000000E+00	    0.000000E+00	    0.000000E+00	    0.000000E+00	
   -1.207069E-02	    1.264512E-03	    0.000000E+00	   -1.000000E+00	    1.000000E-03	    1.000000E-03	    1.000000E+03	    0.000000E+00	    0.000000E+00	    0.000000E+00	    0.000000E+00	
   -1.203196E-02	    1.567989E-03	    0.000000E+00	   -1.000000E+00	    1.000000E-03	    1.000000E-03	    1.000000E+03	    0.000000E+00	    0.000000E+00	    0.000000E+00	    0.000000E+00	
   -1.197665E-02	    1.923554E-03	    0.000000E+00	   -1.000000E+00	    1.000000E-03	    1.000000E-03	    1.000000E+03	    0.000000E+00	    0.000000E+00	    0.000000E+00	    0.000000E+00	
   -1.189934E-02	    2.333731E-03	    0.000000E+00	   -1.000000E+00	    1.000000E-03	    1.000000E-03	    1.000000E+03	    0.000000E+00	    0.000000E+00	    0.000000E+00	    0.000000E+00	
   -1.179371E-02	    2.799291E-03	    0.000000E+00	   -1.000000E+00	    1.000000E-03	    1.000000E-03	    1.000000E+03	    0.000000E+00	    0.000000E+00	    0.000000E+00	    0.000000E+00	
   -1.165276E-02	    3.318811E-03	    0.000000E+00	   -1.000000E+00	    1.000000E-03	    1.000000E-03	    1.000000E+03	    0.000000E+00	    0.000000E+00	    0.000000E+00	    0.000000E+00	
   -1.146925E-02	    3.888331E-03	    0.000000E+00	   -1.000000E+00	    1.000000E-03	    1.000000E-03	    1.000000E+03	    0.000000E+00	    0.000000E+00	    0.000000E+00	    0.000000E+00	
   -1.123626E-02	    4.501167E-03	    0.000000E+00	   -1.000000E+00	    1.000000E-03	    1.000000E-03	    1.000000E+03	    0.000000E+00	    0.000000E+00	    0.000000E+00	    0.000000E+00	
   -1.094784E-02	    5.147962E-03	    0.000000E+00	   -1.000000E+00	    1.000000E-03	    1.000000E-03	    1.000000E+03	    0.000000E+00	    0.000000E+00	    0.000000E+00	    0.000000E+00	
   -1.059983E-02	    5.817025E-03	    0.000000E+00	   -1.000000E+00	    1.000000E-03	    1.000000E-03	    1.000000E+03	    0.000000E+00	    0.000000E+00	    0.000000E+00	    0.000000E+00	
   -1.019044E-02	    6.494952E-03	    0.000000E+00	   -1.000000E+00	    1.000000E-03	    1.000000E-03	    1.000000E+03	    0.000000E+00	    0.000000E+00	    0.000000E+00	    0.000000E+00	
   -9.720744E-03	    7.167508E-03	    0.000000E+00	   -1.000000E+00	    1.000000E-03	    1.000000E-03	    1.000000E+03	    0.000000E+00	    0.000000E+00	    0.000000E+00	    0.000000E+00	
   -9.194834E-03	    7.820637E-03	    0.000000E+00	   -1.000000E+00	    1.000000E-03	    1.000000E-03	    1.000000E+03	    0.000000E+00	    0.000000E+00	    0.000000E+00	    0.000000E+00	
   -8.619619E-03	    8.441483E-03	    0.000000E+00	   -1.000000E+00	    1.000000E-03	    1.000000E-03	    1.000000E+03	    0.000000E+00	    0.000000E+00	    0.000000E+00	    0.000000E+00	
   -8.004317E-03	    9.019255E-03	    0.000000E+00	   -1.000000E+00	    1.000000E-03	    1.000000E-03	    1.000000E+03	    0.000000E+00	    0.000000E+00	    0.000000E+00	    0.000000E+00	
   -7.359702E-03	    9.545831E-03	    0.000000E+00	   -1.000000E+00	    1.000000E-03	    1.000000E-03	    1.000000E+03	    0.000000E+00	    0.000000E+00	    0.000000E+00	    0.000000E+00	
   -6.697247E-03	    1.001602E-02	    0.000000E+00	   -1.000000E+00	    1.000000E-03	    1.000000E-03	    1.000000E+03	    0.000000E+00	    0.000000E+00	    0.000000E+00	    0.000000E+00	
   -6.028288E-03	    1.042754E-02	    0.000000E+00	   -1.000000E+00	    1.000000E-03	    1.000000E-03	    1.000000E+03	    0.000000E+00	    0.000000E+00	    0.000000E+00	    0.000000E+00	
   -5.363328E-03	    1.078067E-02	    0.000000E+00	   -1.000000E+00	    1.000000E-03	    1.000000E-03	    1.000000E+03	    0.000000E+00	    0.000000E+00	    0.000000E+00	    0.000000E+00	
   -4.711536E-03	    1.107778E-02	    0.000000E+00	   -1.000000E+00	    1.000000E-03	    1.000000E-03	    1.000000E+03	    0.000000E+00	    0.000000E+00	    0.000000E+00	    0.000000E+00	
   -4.080454E-03	    1.132282E-02	    0.000000E+00	   -1.000000E+00	    1.000000E-03	    1.000000E-03	    1.000000E+03	    0.000000E+00	    0.000000E+00	    0.000000E+00	    0.000000E+00	
   -3.475907E-03	    1.152069E-02	    0.000000E+00	   -1.000000E+00	    1.000000E-03	    1.000000E-03	    1.000000E+03	    0.000000E+00	    0.000000E+00	    0.000000E+00	    0.000000E+00	
   -2.902065E-03	    1.167683E-02	    0.000000E+00	   -1.000000E+00	    1.000000E-03	    1.000000E-03	    1.000000E+03	    0.000000E+00	    0.000000E+00	    0.000000E+00	    0.000000E+00	
   -2.361599E-03	    1.179678E-02	    0.000000E+00	   -1.000000E+00	    1.000000E-03	    1.000000E-03	    1.000000E+03	    0.000000E+00	    0.000000E+00	    0.000000E+00	    0.000000E+00	
   -1.855907E-03	    1.188592E-02	    0.000000E+00	   -1.000000E+00	    1.000000E-03	    1.000000E-03	    1.000000E+03	    0.000000E+00	    0.000000E+00	    0.000000E+00	    0.000000E+00	
   -1.385345E-03	    1.194926E-02	    0.000000E+00	   -1.000000E+00	    1.000000E-03	    1.000000E-03	    1.000000E+03	    0.000000E+00	    0.000000E+00	    0.000000E+00	    0.000000E+00	
   -9.494686E-04	    1.199134E-02	    0.000000E+00	   -1.000000E+00	    1.000000E-03	    1.000000E-03	    1.000000E+03	    0.000000E+00	    0.000000E+00	    0.000000E+00	    0.000000E+00	
   -5.472339E-04	    1.201617E-02	    0.000000E+00	   -1.000000E+00	    1.000000E-03	    1.000000E-03	    1.000000E+03	    0.000000E+00	    0.000000E+00	    0.000000E+00	    0.000000E+00	
   -1.771813E-04	    1.202721E-02	    0.000000E+00	   -1.000000E+00	    1.000000E-03	    1.000000E-03	    1.000000E+03	    0.000000E+00	    0.000000E+00	    0.000000E+00	    0.000000E+00	
    1.771813E-04	    1.202721E-02	    0.000000E+00	   -1.000000E+00	    1.000000E-03	    1.000000E-03	    1.000000E+03	    0.000000E+00	    0.000000E+00	    0.000000E+00	    0.000000E+00	
    5.472339E-04	    1.201617E-02	    0.000000E+00	   -1.000000E+00	    1.000000E-03	    1.000000E-03	    1.000000E+03	    0.000000E+00	    0.000000E+00	    0.000000E+00	    0.000000E+00	
    9.494686E-04	    1.199134E-02	    0.000000E+00	   -1.000000E+00	    1.000000E-03	    1.000000E-03	    1.000000E+03	    0.000000E+00	    0.000000E+00	    0.000000E+00	    0.000000E+00	
    1.385345E-03	    1.194926E-02	    0.000000E+00	   -1.000000E+00	    1.000000E-03	    1.000000E-03	    1.000000E+03	    0.000000E+00	    0.000000E+00	    0.000000E+00	    0.000000E+00	
    1.855907E-03	    1.188592E-02	    0.000000E+00	   -1.000000E+00	    1.000000E-03	    1.000000E-03	    1.000000E+03	    0.000000E+00	    0.000000E+00	    0.000000E+00	    0.000000E+00	
    2.361599E-03	    1.179678E-02	    0.000000E+00	   -1.000000E+00	    1.000000E-03	    1.000000E-03	    1.000000E+03	    0.000000E+00	    0.000000E+00	    0.000000E+00	    0.000000E+00	
    2.902065E-03	    1.167683E-02	    0.000000E+00	   -1.000000E+00	    1.000000E-03	    1.000000E-03	    1.000000E+03	    0.000000E+00	    0.000000E+00	    0.000000E+00	    0.000000E+00	
    3.475907E-03	    1.152069E-02	    0.000000E+00	   -1.000000E+00	    1.000000E-03	    1.000000E-03	    1.000000E+03	    0.000000E+00	    0.000000E+00	    0.000000E+00	    0.000000E+00	
    4.080454E-03	    1.132282E-02	    0.000000E+00	   -1.000000E+00	    1.000000E-03	    1.000000E-03	    1.000000E+03	    0.000000E+00	    0.000000E+00	    0.000000E+00	    0.000000E+00	
    4.711536E-03	    1.107778E-02	    0.000000E+00	   -1.000000E+00	    1.000000E-03	    1.000000E-03	    1.000000E+03	    0.000000E+00	    0.000000E+00	    0.000000E+00	    0.000000E+00	
    5.363328E-03	    1.078067E-02	    0.000000E+00	   -1.000000E+00	    1.000000E-03	    1.000000E-03	    1.000000E+03	    0.000000E+00	    0.000000E+00	    0.000000E+00	    0.000000E+00	
    6.028288E-03	    1.042754E-02	    0.000000E+00	   -1.000000E+00	    1.000000E-03	    1.000000E-03	    1.000000E+03	    0.000000E+00	    0.000000E+00	    0.000000E+00	    0.000000E+00	
    6.697247E-03	    1.001602E-02	    0.000000E+00	   -1.000000E+00	    1.000000E-03	    1.000000E-03	    1.000000E+03	    0.000000E+00	    0.000000E+00	    0.000000E+00	    0.000000E+00	
    7.359702E-03	    9.545831E-03	    0.000000E+00	   -1.000000E+00	    1.000000E-03	    1.000000E-03	    1.000000E+03	    0.000000E+00	    0.000000E+00	    0.000000E+00	    0.000000E+00	
    8.004317E-03	    9.019255E-03	    0.000000E+00	   -1.000000E+00	    1.000000E-03	    1.000000E-03	    1.000000E+03	    0.000000E+00	    0.000000E+00	    0.000000E+00	    0.000000E+00	
    8.619619E-03	    8.441483E-03	    0.000000E+00	   -1.000000E+00	    1.000000E-03	    1.000000E-03	    1.000000E+03	    0.000000E+00	    0.000000E+00	    0.000000E+00	    0.000000E+00	
    9.194834E-03	    7.820637E-03	    0.000000E+00	   -1.000000E+00	    1.000000E-03	    1.000000E-03	    1.000000E+03	    0.000000E+00	    0.000000E+00	    0.000000E+00	    0.000000E+00	
    9.720744E-03	    7.167508E-03	    0.000000E+00	   -1.000000E+00	    1.000000E-03	    1.000000E-03	    1.000000E+03	    0.000000E+00	    0.000000E+00	    0.000000E+00	    0.000000E+00	
    1.019044E-02	    6.494952E-03	    0.000000E+00	   -1.000000E+00	    1.000000E-03	    1.000000E-03	    1.000000E+03	    0.000000E+00	    0.000000E+00	    0.000000E+00	    0.000000E+00	
    1.059983E-02	    5.817025E-03	    0.000000E+00	   -1.000000E+00	    1.000000E-03	    1.000000E-03	    1.000000E+03	    0.000000E+00	    0.000000E+00	    0.000000E+00	    0.000000E+00	
    1.094784E-02	    5.147962E-03	    0.000000E+00	   -1.000000E+00	    1.000000E-03	    1.000000E-03	    1.000000E+03	    0.000000E+00	    0.000000E+00	    0.000000E+00	    0.000000E+00	
    1.123626E-02	    4.501167E-03	    0.000000E+00	   -1.000000E+00	    1.000000E-03	    1.000000E-03	    1.000000E+03	    0.000000E+00	    0.000000E+00	    0.000000E+00	    0.000000E+00	
    1.146925E-02	    3.888331E-03	    0.000000E+00	   -1.000000E+00	    1.000000E-03	    1.000000E-03	    1.000000E+03	    0.000000E+00	    0.000000E+00	    0.000000E+00	    0.000000E+00	
    1.165276E-02	    3.318811E-03	    0.000000E+00	   -1.000000E+00	    1.000000E-03	    1.000000E-03	    1.000000E+03	    0.000000E+00	    0.000000E+00	    0.000000E+00	    0.000000E+00	
    1.179371E-02	    2.799291E-03	    0.000000E+00	   -1.000000E+00	    1.000000E-03	    1.000000E-03	    1.000000E+03	    0.000000E+00	    0.000000E+00	    0.000000E+00	    0.000000E+00	
    1.189934E-02	    2.333731E-03	    0.000000E+00	   -1.000000E+00	    1.000000E-03	    1.000000E-03	    1.000000E+03	    0.000000E+00	    0.000000E+00	    0.000000E+00	    0.000000E+00	
    1.197665E-02	    1.923554E-03	    0.000000E+00	   -1.000000E+00	    1.000000E-03	    1.000000E-03	    1.000000E+03	    0.000000E+00	    0.000000E+00	    0.000000E+00	    0.000000E+00	
    1.203196E-02	    1.567989E-03	    0.000000E+00	   -1.000000E+00	    1.000000E-03	    1.000000E-03	    1.000000E+03	    0.000000E+00	    0.000000E+00	    0.000000E+00	    0.000000E+00	
    1.207069E-02	    1.264512E-03	    0.000000E+00	   -1.000000E+00	    1.000000E-03	    1.000000E-03	    1.000000E+03	    0.000000E+00	    0.000000E+00	    0.000000E+00	    0.000000E+00	
    1.209726E-02	    1.009312E-03	    0.000000E+00	   -1.000000E+00	    1.000000E-03	    1.000000E-03	    1.000000E+03	    0.000000E+00	    0.000000E+00	    0.000000E+00	    0.000000E+00	
    1.211518E-02	    7.977369E-04	    0.000000E+00	   -1.000000E+00	    1.000000E-03	    1.000000E-03	    1.000000E+03	    0.000000E+00	    0.000000E+00	    0.000000E+00	    0.000000E+00	
    1.212706E-02	    6.246949E-04	    0.000000E+00	   -1.000000E+00	    1.000000E-03	    1.000000E-03	    1.000000E+03	    0.000000E+00	    0.000000E+00	    0.000000E+00	    0.000000E+00	
    1.213485E-02	    4.849849E-04	    0.000000E+00	   -1.000000E+00	    1.000000E-03	    1.000000E-03	    1.000000E+03	    0.000000E+00	    0.000000E+00	    0.000000E+00	    0.000000E+00	
    1.213991E-02	    3.735571E-04	    0.000000E+00	   -1.000000E+00	    1.000000E-03	    1.000000E-03	    1.000000E+03	    0.000000E+00	    0.000000E+00	    0.000000E+00	    0.000000E+00	
    1.214317E-02	    2.856999E-04	    0.000000E+00	   -1.000000E+00	    1.000000E-03	    1.000000E-03	    1.000000E+03	    0.000000E+00	    0.000000E+00	    0.000000E+00	    0.000000E+00	
    1.214528E-02	    2.171613E-04	    0.000000E+00	   -1.000000E+00	    1.000000E-03	    1.000000E-03	    1.000000E+03	    0.000000E+00	    0.000000E+00	    0.000000E+00	    0.000000E+00	
    1.214664E-02	    1.642119E-04	    0.000000E+00	   -1.000000E+00	    1.000000E-03	    1.000000E-03	    1.000000E+03	    0.000000E+00	    0.000000E+00	    0.000000E+00	    0.000000E+00	
    1.214753E-02	    1.236630E-04	    0.000000E+00	   -1.000000E+00	    1.000000E-03	    1.000000E-03	    1.000000E+03	    0.000000E+00	    0.000000E+00	    0.000000E+00	    0.000000E+00	
    1.214811E-02	    9.284917E-05	    0.000000E+00	   -1.000000E+00	    1.000000E-03	    1.000000E-03	    1.000000E+03	    0.000000E+00	    0.000000E+00	    0.000000E+00	    0.000000E+00	
    1.214850E-02	    6.958711E-05	    0.000000E+00	   -1.000000E+00	    1.000000E-03	    1.000000E-03	    1.000000E+03	    0.000000E+00	    0.000000E+00	    0.000000E+00	    0.000000E+00	
    1.214864E-02	    6.022430E-05	    0.000000E+00	   -1.000000E+00	    1.000000E-03	    1.000000E-03	    1.000000E+03	    0.000000E+00	    0.000000E+00	    0.000000E+00	    0.000000E+00	
   -1.214840E-02	    6.022021E-05	    0.000000E+00	   -1.000000E+00	    1.000000E-03	    1.000000E-03	    1.000000E+03	    0.000000E+00	    0.000000E+00	    0.000000E+00	    0.000000E+00	
   -1.214822E-02	    6.958217E-05	    1.530347E-05	   -1.000000E+00	    1.000117E-03	    1.000000E-03	    1.000000E+03	    7.804696E-07	    1.554884E-04	    1.992242E+05	    3.010433E+03	
   -1.214774E-02	    9.284187E-05	    4.667753E-05	   -1.000000E+00	    1.000107E-03	    1.000000E-03	    1.000000E+03	    7.114117E-07	    7.256597E-05	    1.020028E+05	    1.575052E+04	
   -1.214703E-02	    1.236520E-04	    8.173556E-05	   -1.000000E+00	    1.000133E-03	    1.000000E-03	    1.000000E+03	    8.842319E-07	    6.319814E-05	    7.147235E+04	    2.722392E+04	
   -1.214598E-02	    1.641951E-04	    1.230196E-04	   -1.000000E+00	    1.000192E-03	    1.000000E-03	    1.000000E+03	    1.277129E-06	    7.476836E-05	    5.854409E+04	    3.497123E+04	
   -1.214441E-02	    2.171353E-04	    1.734029E-04	   -1.000000E+00	    1.000283E-03	    1.000000E-03	    1.000000E+03	    1.885428E-06	    9.317940E-05	    4.942083E+04	    3.972513E+04	
   -1.214203E-02	    2.856593E-04	    2.361053E-04	   -1.000000E+00	    1.000412E-03	    1.000000E-03	    1.000000E+03	    2.748388E-06	    1.143959E-04	    4.162291E+04	    4.254343E+04	
   -1.213842E-02	    3.734931E-04	    3.147795E-04	   -1.000000E+00	    1.000591E-03	    1.000000E-03	    1.000000E+03	    3.942850E-06	    1.377190E-04	    3.492880E+04	    4.422176E+04	
   -1.213291E-02	    4.848841E-04	    4.135535E-04	   -1.000000E+00	    1.000836E-03	    1.000000E-03	    1.000000E+03	    5.573330E-06	    1.632587E-04	    2.929285E+04	    4.526934E+04	
   -1.212457E-02	    6.245362E-04	    5.370008E-04	   -1.000000E+00	    1.001165E-03	    1.000000E-03	    1.000000E+03	    7.768218E-06	    1.911746E-04	    2.460984E+04	    4.598594E+04	
   -1.211199E-02	    7.974888E-04	    6.900233E-04	   -1.000000E+00	    1.001602E-03	    1.000000E-03	    1.000000E+03	    1.067721E-05	    2.214850E-04	    2.074371E+04	    4.653457E+04	
   -1.209324E-02	    1.008928E-03	    8.776639E-04	   -1.000000E+00	    1.002170E-03	    1.000000E-03	    1.000000E+03	    1.446709E-05	    2.540328E-04	    1.755936E+04	    4.699576E+04	
   -1.206566E-02	    1.263924E-03	    1.104859E-03	   -1.000000E+00	    1.002897E-03	    1.000000E-03	    1.000000E+03	    1.931482E-05	    2.885030E-04	    1.493687E+04	    4.740459E+04	
   -1.202575E-02	    1.567103E-03	    1.376131E-03	   -1.000000E+00	    1.003810E-03	    1.000000E-03	    1.000000E+03	    2.539766E-05	    3.244590E-04	    1.277515E+04	    4.777325E+04	
   -1.196906E-02	    1.922243E-03	    1.695219E-03	   -1.000000E+00	    1.004932E-03	    1.000000E-03	    1.000000E+03	    3.288014E-05	    3.613831E-04	    1.099092E+04	    4.810317E+04	
   -1.189019E-02	    2.331825E-03	    2.064648E-03	   -1.000000E+00	    1.006285E-03	    1.000000E-03	    1.000000E+03	    4.189857E-05	    3.987168E-04	    9.516239E+03	    4.839111E+04	
   -1.178283E-02	    2.796576E-03	    2.485282E-03	   -1.000000E+00	    1.007882E-03	    1.000000E-03	    1.000000E+03	    5.254391E-05	    4.358963E-04	    8.295847E+03	    4.863211E+04	
   -1.164002E-02	    3.315025E-03	    2.955905E-03	   -1.000000E+00	    1.009727E-03	    1.000000E-03	    1.000000E+03	    6.484477E-05	    4.723822E-04	    7.284816E+03	    4.882119E+04	
   -1.145457E-02	    3.883167E-03	    3.472886E-03	   -1.000000E+00	    1.011813E-03	    1.000000E-03	    1.000000E+03	    7.875245E-05	    5.076821E-04	    6.446556E+03	    4.895437E+04	
   -1.121961E-02	    4.494282E-03	    4.030020E-03	   -1.000000E+00	    1.014120E-03	    1.000000E-03	    1.000000E+03	    9.413082E-05	    5.413664E-04	    5.751213E+03	    4.902949E+04	
   -1.092930E-02	    5.138994E-03	    4.618595E-03	   -1.000000E+00	    1.016613E-03	    1.000000E-03	    1.000000E+03	    1.107534E-04	    5.730782E-04	    5.174361E+03	    4.904679E+04	
   -1.057954E-02	    5.805612E-03	    5.227727E-03	   -1.000000E+00	    1.019247E-03	    1.000000E-03	    1.000000E+03	    1.283101E-04	    6.025396E-04	    4.695965E+03	    4.900921E+04	
   -1.016867E-02	    6.480764E-03	    5.844980E-03	   -1.000000E+00	    1.021964E-03	    1.000000E-03	    1.000000E+03	    1.464236E-04	    6.295538E-04	    4.299538E+03	    4.892251E+04	
   -9.697830E-03	    7.150269E-03	    6.457192E-03	   -1.000000E+00	    1.024701E-03	    1.000000E-03	    1.000000E+03	    1.646756E-04	    6.540045E-04	    3.971473E+03	    4.879488E+04	
   -9.171190E-03	    7.800151E-03	    7.051433E-03	   -1.000000E+00	    1.027396E-03	    1.000000E-03	    1.000000E+03	    1.826383E-04	    6.758522E-04	    3.700495E+03	    4.863632E+04	
   -8.595699E-03	    8.417653E-03	    7.615938E-03	   -1.000000E+00	    1.029986E-03	    1.000000E-03	    1.000000E+03	    1.999081E-04	    6.951270E-04	    3.477232E+03	    4.845770E+04	
   -7.980589E-03	    8.992087E-03	    8.140889E-03	   -1.000000E+00	    1.032420E-03	    1.000000E-03	    1.000000E+03	    2.161346E-04	    7.119185E-04	    3.293867E+03	    4.826972E+04	
   -7.336616E-03	    9.515429E-03	    8.618951E-03	   -1.000000E+00	    1.034656E-03	    1.000000E-03	    1.000000E+03	    2.310425E-04	    7.263645E-04	    3.143857E+03	    4.808197E+04	
   -6.675207E-03	    9.982582E-03	    9.045495E-03	   -1.000000E+00	    1.036667E-03	    1.000000E-03	    1.000000E+03	    2.444435E-04	    7.386379E-04	    3.021713E+03	    4.790231E+04	
   -6.007637E-03	    1.039132E-02	    9.418532E-03	   -1.000000E+00	    1.038436E-03	    1.000000E-03	    1.000000E+03	    2.562369E-04	    7.489342E-04	    2.922820E+03	    4.773654E+04	
   -5.344335E-03	    1.074197E-02	    9.738416E-03	   -1.000000E+00	    1.039960E-03	    1.000000E-03	    1.000000E+03	    2.664025E-04	    7.574604E-04	    2.843293E+03	    4.758838E+04	
   -4.694393E-03	    1.103695E-02	    1.000739E-02	   -1.000000E+00	    1.041248E-03	    1.000000E-03	    1.000000E+03	    2.749869E-04	    7.644254E-04	    2.779862E+03	    4.745972E+04	
   -4.065280E-03	    1.128017E-02	    1.022909E-02	   -1.000000E+00	    1.042313E-03	    1.000000E-03	    1.000000E+03	    2.820869E-04	    7.700320E-04	    2.729768E+03	    4.735096E+04	
   -3.462757E-03	    1.147655E-02	    1.040802E-02	   -1.000000E+00	    1.043175E-03	    1.000000E-03	    1.000000E+03	    2.878333E-04	    7.744713E-04	    2.690694E+03	    4.726139E+04	
   -2.890937E-03	    1.163149E-02	    1.054914E-02	   -1.000000E+00	    1.043856E-03	    1.000000E-03	    1.000000E+03	    2.923755E-04	    7.779195E-04	    2.660686E+03	    4.718956E+04	
   -2.352451E-03	    1.175052E-02	    1.065750E-02	   -1.000000E+00	    1.044380E-03	    1.000000E-03	    1.000000E+03	    2.958693E-04	    7.805354E-04	    2.638108E+03	    4.713360E+04	
   -1.848663E-03	    1.183896E-02	    1.073797E-02	   -1.000000E+00	    1.044770E-03	    1.000000E-03	    1.000000E+03	    2.984679E-04	    7.824596E-04	    2.621587E+03	    4.709146E+04	
   -1.379910E-03	    1.190181E-02	    1.079512E-02	   -1.000000E+00	    1.045047E-03	    1.000000E-03	    1.000000E+03	    3.003152E-04	    7.838151E-04	    2.609975E+03	    4.706105E+04	
   -9.457302E-04	    1.194356E-02	    1.083303E-02	   -1.000000E+00	    1.045231E-03	    1.000000E-03	    1.000000E+03	    3.015424E-04	    7.847079E-04	    2.602314E+03	    4.704042E+04	
   -5.450748E-04	    1.196818E-02	    1.085534E-02	   -1.000000E+00	    1.045340E-03	    1.000000E-03	    1.000000E+03	    3.022655E-04	    7.852281E-04	    2.597809E+03	    4.702775E+04	
   -1.764816E-04	    1.197914E-02	    1.086517E-02	   -1.000000E+00	    1.045388E-03	    1.000000E-03	    1.000000E+03	    3.025857E-04	    7.854518E-04	    2.595799E+03	    4.702137E+04	
    1.764816E-04	    1.197914E-02	    1.086517E-02	   -1.000000E+00	    1.045388E-03	    1.000000E-03	    1.000000E+03	    3.025857E-04	    7.854518E-04	    2.595799E+03	    4.702137E+04	
    5.450748E-04	    1.196818E-02	    1.085534E-02	   -1.000000E+00	    1.045340E-03	    1.000000E-03	    1.000000E+03	    3.022655E-04	    7.852281E-04	    2.597809E+03	    4.702775E+04	
    9.457302E-04	    1.194356E-02	    1.083303E-02	   -1.000000E+00	    1.045231E-03	    1.000000E-03	    1.000000E+03	    3.015424E-04	    7.847079E-04	    2.602314E+03	    4.704042E+04	
    1.379910E-03	    1.190181E-02	    1.079512E-02	   -1.000000E+00	    1.045047E-03	    1.000000E-03	    1.000000E+03	    3.003152E-04	    7.838151E-04	    2.609975E+03	    4.706105E+04	
    1.848663E-03	    1.183896E-02	    1.073797E-02	   -1.000000E+00	    1.044770E-03	    1.000000E-03	    1.000000E+03	    2.984679E-04	    7.824596E-04	    2.621587E+03	    4.709146E+04	
    2.352451E-03	    1.175052E-02	    1.065750E-02	   -1.000000E+00	    1.044380E-03	    1.000000E-03	    1.000000E+03	    2.958693E-04	    7.805354E-04	    2.638108E+03	    4.713360E+04	
    2.890937E-03	    1.163149E-02	    1.054914E-02	   -1.000000E+00	    1.043856E-03	    1.000000E-03	    1.000000E+03	    2.923755E-04	    7.779195E-04	    2.660686E+03	    4.718956E+04	
    3.462757E-03	    1.147655E-02	    1.040802E-02	   -1.000000E+00	    1.043175E-03	    1.000000E-03	    1.000000E+03	    2.878333E-04	    7.744713E-04	    2.690694E+03	    4.726139E+04	
    4.065280E-03	    1.128017E-02	    1.022909E-02	   -1.000000E+00	    1.042313E-03	    1.000000E-03	    1.000000E+03	    2.820869E-04	    7.700320E-04	    2.729768E+03	    4.735096E+04	
    4.694393E-03	    1.103695E-02	    1.000739E-02	   -1.000000E+00	    1.041248E-03	    1.000000E-03	    1.000000E+03	    2.749869E-04	    7.644254E-04	    2.779862E+03	    4.745972E+04	
    5.344335E-03	    1.074197E-02	    9.738416E-03	   -1.000000E+00	    1.039960E-03	    1.000000E-03	    1.000000E+03	    2.664025E-04	    7.574604E-04	    2.843293E+03	    4.758838E+04	
    6.007637E-03	    1.039132E-02	    9.418532E-03	   -1.000000E+00	    1.038436E-03	    1.000000E-03	    1.000000E+03	    2.562369E-04	    7.489342E-04	    2.922820E+03	    4.773654E+04	
    6.675207E-03	    9.982582E-03	    9.045495E-03	   -1.000000E+00	    1.036667E-03	    1.000000E-03	    1.000000E+03	    2.444435E-04	    7.386379E-04	    3.021713E+03	    4.790231E+04	
    7.336616E-03	    9.515429E-03	    8.618951E-03	   -1.000000E+00	    1.034656E-03	    1.000000E-03	    1.000000E+03	    2.310425E-04	    7.263645E-04	    3.143857E+03	    4.808197E+04	
    7.980589E-03	    8.992087E-03	    8.140889E-03	   -1.000000E+00	    1.032420E-03	    1.000000E-03	    1.000000E+03	    2.161346E-04	    7.119185E-04	    3.293867E+03	    4.826972E+04	
    8.595699E-03	    8.417653E-03	    7.615938E-03	   -1.000000E+00	    1.029986E-03	    1.000000E-03	    1.000000E+03	    1.999081E-04	    6.951270E-04	    3.477232E+03	    4.845770E+04	
    9.171190E-03	    7.800151E-03	    7.051433E-03	   -1.000000E+00	    1.027396E-03	    1.000000E-03	    1.000000E+03	    1.826383E-04	    6.758522E-04	    3.700495E+03	    4.863632E+04	
    9.697830E-03	    7.150269E-03	    6.457192E-03	   -1.000000E+00	    1.024701E-03	    1.000000E-03	    1.000000E+03	    1.646756E-04	    6.540045E-04	    3.971473E+03	    4.879487E+04	
    1.016867E-02	    6.480764E-03	    5.844980E-03	   -1.000000E+00	    1.021964E-03	    1.000000E-03	    1.000000E+03	    1.464236E-04	    6.295538E-04	    4.299538E+03	    4.892251E+04	
    1.057954E-02	    5.805612E-03	    5.227727E-03	   -1.000000E+00	    1.019247E-03	    1.000000E-03	    1.000000E+03	    1.283101E-04	    6.025396E-04	    4.695965E+03	    4.900921E+04	
    1.092930E-02	    5.138994E-03	    4.618595E-03	   -1.000000E+00	    1.016613E-03	    1.000000E-03	    1.000000E+03	    1.107534E-04	    5.730782E-04	    5.174361E+03	    4.904678E+04	
    1.121961E-02	    4.494282E-03	    4.030020E-03	   -1.000000E+00	    1.014120E-03	    1.000000E-03	    1.000000E+03	    9.413082E-05	    5.413663E-04	    5.751213E+03	    4.902949E+04	
    1.145457E-02	    3.883167E-03	    3.472886E-03	   -1.000000E+00	    1.011813E-03	    1.000000E-03	    1.000000E+03	    7.875245E-05	    5.076821E-04	    6.446556E+03	    4.895437E+04	
    1.164002E-02	    3.315025E-03	    2.955905E-03	   -1.000000E+00	    1.009727E-03	    1.000000E-03	    1.000000E+03	    6.484477E-05	    4.723822E-04	    7.284816E+03	    4.882119E+04	
    1.178283E-02	    2.796576E-03	    2.485282E-03	   -1.000000E+00	    1.007882E-03	    1.000000E-03	    1.000000E+03	    5.254391E-05	    4.358963E-04	    8.295847E+03	    4.863211E+04	
    1.189019E-02	    2.331825E-03	    2.064648E-03	   -1.000000E+00	    1.006285E-03	    1.000000E-03	    1.000000E+03	    4.189857E-05	    3.987168E-04	    9.516238E+03	    4.839111E+04	
    1.196906E-02	    1.922243E-03	    1.695219E-03	   -1.000000E+00	    1.004932E-03	    1.000000E-03	    1.000000E+03	    3.288014E-05	    3.613830E-04	    1.099092E+04	    4.810317E+04	
    1.202575E-02	    1.567103E-03	    1.376131E-03	   -1.000000E+00	    1.003810E-03	    1.000000E-03	    1.000000E+03	    2.539766E-05	    3.244589E-04	    1.277515E+04	    4.777324E+04	
    1.206566E-02	    1.263924E-03	    1.104859E-03	   -1.000000E+00	    1.002897E-03	    1.000000E-03	    1.000000E+03	    1.931482E-05	    2.885030E-04	    1.493687E+04	    4.740459E+04	
    1.209324E-02	    1.008928E-03	    8.776639E-04	   -1.000000E+00	    1.002170E-03	    1.000000E-03	    1.000000E+03	    1.446709E-05	    2.540328E-04	    1.755936E+04	    4.699576E+04	
    1.211199E-02	    7.974888E-04	    6.900233E-04	   -1.000000E+00	    1.001602E-03	    1.000000E-03	    1.000000E+03	    1.067721E-05	    2.214850E-04	    2.074371E+04	    4.653456E+04	
    1.212457E-02	    6.245362E-04	    5.370007E-04	   -1.000000E+00	    1.001165E-03	    1.000000E-03	    1.000000E+03	    7.768218E-06	    1.911746E-04	    2.460984E+04	    4.598593E+04	
    1.213291E-02	    4.848841E-04	    4.135535E-04	   -1.000000E+00	    1.000836E-03	    1.000000E-03	    1.000000E+03	    5.573330E-06	    1.632587E-04	    2.929285E+04	    4.526933E+04	
    1.213842E-02	    3.734931E-04	    3.147795E-04	   -1.000000E+00	    1.000591E-03	    1.000000E-03	    1.000000E+03	    3.942850E-06	    1.377190E-04	    3.492879E+04	    4.422176E+04	
    1.214203E-02	    2.856593E-04	    2.361053E-04	   -1.000000E+00	    1.000412E-03	    1.000000E-03	    1.000000E+03	    2.748388E-06	    1.143959E-04	    4.162291E+04	    4.254343E+04	