Title="Fields"
Variables="X""Y""Velocity""Phi""Effective Viscosity""Dynamic Viscosity""Density""Eddy Viscosity""K""Omega""S""F1SST""distance""GEN"
Zone I=52 J=52 F=POINT
   -1.092947E-02	    4.863435E-05	    0.000000E+00	    0.000000E+00	    1.000000E-03	    1.000000E-03	    1.000000E+03	    0.000000E+00	    0.000000E+00	    4.441412E+08	    0.000000E+00	    1.000000E+00	    0.000000E+00	    0.000000E+00	
   -1.093562E-02	    6.130524E-05	    0.000000E+00	    0.000000E+00	    1.000000E-03	    1.000000E-03	    1.000000E+03	    0.000000E+00	    0.000000E+00	    4.441412E+08	    0.000000E+00	    1.000000E+00	    0.000000E+00	    0.000000E+00	
   -1.095293E-02	    9.721678E-05	    0.000000E+00	    0.000000E+00	    1.000000E-03	    1.000000E-03	    1.000000E+03	    0.000000E+00	    0.000000E+00	    1.766226E+08	    0.000000E+00	    1.000000E+00	    0.000000E+00	    0.000000E+00	
   -1.097963E-02	    1.531816E-04	    0.000000E+00	    0.000000E+00	    1.000000E-03	    1.000000E-03	    1.000000E+03	    0.000000E+00	    0.000000E+00	    7.114346E+07	    0.000000E+00	    1.000000E+00	    0.000000E+00	    0.000000E+00	
   -1.101981E-02	    2.388396E-04	    0.000000E+00	    0.000000E+00	    1.000000E-03	    1.000000E-03	    1.000000E+03	    0.000000E+00	    0.000000E+00	    2.926616E+07	    0.000000E+00	    1.000000E+00	    0.000000E+00	    0.000000E+00	
   -1.107851E-02	    3.672014E-04	    0.000000E+00	    0.000000E+00	    1.000000E-03	    1.000000E-03	    1.000000E+03	    0.000000E+00	    0.000000E+00	    1.238269E+07	    0.000000E+00	    1.000000E+00	    0.000000E+00	    0.000000E+00	
   -1.116122E-02	    5.550919E-04	    0.000000E+00	    0.000000E+00	    1.000000E-03	    1.000000E-03	    1.000000E+03	    0.000000E+00	    0.000000E+00	    5.419503E+06	    0.000000E+00	    1.000000E+00	    0.000000E+00	    0.000000E+00	
   -1.127282E-02	    8.233127E-04	    0.000000E+00	    0.000000E+00	    1.000000E-03	    1.000000E-03	    1.000000E+03	    0.000000E+00	    0.000000E+00	    2.464073E+06	    0.000000E+00	    1.000000E+00	    0.000000E+00	    0.000000E+00	
   -1.141574E-02	    1.196364E-03	    0.000000E+00	    0.000000E+00	    1.000000E-03	    1.000000E-03	    1.000000E+03	    0.000000E+00	    0.000000E+00	    1.167312E+06	    0.000000E+00	    1.000000E+00	    0.000000E+00	    0.000000E+00	
   -1.158734E-02	    1.701512E-03	    0.000000E+00	    0.000000E+00	    1.000000E-03	    1.000000E-03	    1.000000E+03	    0.000000E+00	    0.000000E+00	    5.773259E+05	    0.000000E+00	    1.000000E+00	    0.000000E+00	    0.000000E+00	
   -1.177654E-02	    2.366854E-03	    0.000000E+00	    0.000000E+00	    1.000000E-03	    1.000000E-03	    1.000000E+03	    0.000000E+00	    0.000000E+00	    2.985264E+05	    0.000000E+00	    1.000000E+00	    0.000000E+00	    0.000000E+00	
   -1.196038E-02	    3.217908E-03	    0.000000E+00	    0.000000E+00	    1.000000E-03	    1.000000E-03	    1.000000E+03	    0.000000E+00	    0.000000E+00	    1.616151E+05	    0.000000E+00	    1.000000E+00	    0.000000E+00	    0.000000E+00	
   -1.210156E-02	    4.272264E-03	    0.000000E+00	    0.000000E+00	    1.000000E-03	    1.000000E-03	    1.000000E+03	    0.000000E+00	    0.000000E+00	    9.176967E+04	    0.000000E+00	    1.000000E+00	    0.000000E+00	    0.000000E+00	
   -1.214872E-02	    5.532325E-03	    0.000000E+00	    0.000000E+00	    1.000000E-03	    1.000000E-03	    1.000000E+03	    0.000000E+00	    0.000000E+00	    5.478866E+04	    0.000000E+00	    1.000000E+00	    0.000000E+00	    0.000000E+00	
   -1.204134E-02	    6.977381E-03	    0.000000E+00	    0.000000E+00	    1.000000E-03	    1.000000E-03	    1.000000E+03	    0.000000E+00	    0.000000E+00	    3.449486E+04	    0.000000E+00	    1.000000E+00	    0.000000E+00	    0.000000E+00	
   -1.172050E-02	    8.558012E-03	    0.000000E+00	    0.000000E+00	    1.000000E-03	    1.000000E-03	    1.000000E+03	    0.000000E+00	    0.000000E+00	    2.297406E+04	    0.000000E+00	    1.000000E+00	    0.000000E+00	    0.000000E+00	
   -1.114397E-02	    1.019700E-02	    0.000000E+00	    0.000000E+00	    1.000000E-03	    1.000000E-03	    1.000000E+03	    0.000000E+00	    0.000000E+00	    1.622396E+04	    0.000000E+00	    1.000000E+00	    0.000000E+00	    0.000000E+00	
   -1.030065E-02	    1.179963E-02	    0.000000E+00	    0.000000E+00	    1.000000E-03	    1.000000E-03	    1.000000E+03	    0.000000E+00	    0.000000E+00	    1.215738E+04	    0.000000E+00	    1.000000E+00	    0.000000E+00	    0.000000E+00	
   -9.217515E-03	    1.327190E-02	    0.000000E+00	    0.000000E+00	    1.000000E-03	    1.000000E-03	    1.000000E+03	    0.000000E+00	    0.000000E+00	    9.650085E+03	    0.000000E+00	    1.000000E+00	    0.000000E+00	    0.000000E+00	
   -7.954820E-03	    1.453996E-02	    0.000000E+00	    0.000000E+00	    1.000000E-03	    1.000000E-03	    1.000000E+03	    0.000000E+00	    0.000000E+00	    8.077585E+03	    0.000000E+00	    1.000000E+00	    0.000000E+00	    0.000000E+00	
   -6.591231E-03	    1.556287E-02	    0.000000E+00	    0.000000E+00	    1.000000E-03	    1.000000E-03	    1.000000E+03	    0.000000E+00	    0.000000E+00	    7.082553E+03	    0.000000E+00	    1.000000E+00	    0.000000E+00	    0.000000E+00	
   -5.205958E-03	    1.633428E-02	    0.000000E+00	    0.000000E+00	    1.000000E-03	    1.000000E-03	    1.000000E+03	    0.000000E+00	    0.000000E+00	    6.454495E+03	    0.000000E+00	    1.000000E+00	    0.000000E+00	    0.000000E+00	
   -3.864885E-03	    1.687500E-02	    0.000000E+00	    0.000000E+00	    1.000000E-03	    1.000000E-03	    1.000000E+03	    0.000000E+00	    0.000000E+00	    6.065611E+03	    0.000000E+00	    1.000000E+00	    0.000000E+00	    0.000000E+00	
   -2.614051E-03	    1.722156E-02	    0.000000E+00	    0.000000E+00	    1.000000E-03	    1.000000E-03	    1.000000E+03	    0.000000E+00	    0.000000E+00	    5.835791E+03	    0.000000E+00	    1.000000E+00	    0.000000E+00	    0.000000E+00	
   -1.479650E-03	    1.741566E-02	    0.000000E+00	    0.000000E+00	    1.000000E-03	    1.000000E-03	    1.000000E+03	    0.000000E+00	    0.000000E+00	    5.713150E+03	    0.000000E+00	    1.000000E+00	    0.000000E+00	    0.000000E+00	
   -4.718039E-04	    1.749693E-02	    0.000000E+00	    0.000000E+00	    1.000000E-03	    1.000000E-03	    1.000000E+03	    0.000000E+00	    0.000000E+00	    5.663026E+03	    0.000000E+00	    1.000000E+00	    0.000000E+00	    0.000000E+00	
    4.718039E-04	    1.749693E-02	    0.000000E+00	    0.000000E+00	    1.000000E-03	    1.000000E-03	    1.000000E+03	    0.000000E+00	    0.000000E+00	    5.663026E+03	    0.000000E+00	    1.000000E+00	    0.000000E+00	    0.000000E+00	
    1.479650E-03	    1.741566E-02	    0.000000E+00	    0.000000E+00	    1.000000E-03	    1.000000E-03	    1.000000E+03	    0.000000E+00	    0.000000E+00	    5.713150E+03	    0.000000E+00	    1.000000E+00	    0.000000E+00	    0.000000E+00	
    2.614051E-03	    1.722156E-02	    0.000000E+00	    0.000000E+00	    1.000000E-03	    1.000000E-03	    1.000000E+03	    0.000000E+00	    0.000000E+00	    5.835791E+03	    0.000000E+00	    1.000000E+00	    0.000000E+00	    0.000000E+00	
    3.864885E-03	    1.687500E-02	    0.000000E+00	    0.000000E+00	    1.000000E-03	    1.000000E-03	    1.000000E+03	    0.000000E+00	    0.000000E+00	    6.065611E+03	    0.000000E+00	    1.000000E+00	    0.000000E+00	    0.000000E+00	
    5.205958E-03	    1.633428E-02	    0.000000E+00	    0.000000E+00	    1.000000E-03	    1.000000E-03	    1.000000E+03	    0.000000E+00	    0.000000E+00	    6.454495E+03	    0.000000E+00	    1.000000E+00	    0.000000E+00	    0.000000E+00	
    6.591231E-03	    1.556287E-02	    0.000000E+00	    0.000000E+00	    1.000000E-03	    1.000000E-03	    1.000000E+03	    0.000000E+00	    0.000000E+00	    7.082553E+03	    0.000000E+00	    1.000000E+00	    0.000000E+00	    0.000000E+00	
    7.954820E-03	    1.453996E-02	    0.000000E+00	    0.000000E+00	    1.000000E-03	    1.000000E-03	    1.000000E+03	    0.000000E+00	    0.000000E+00	    8.077585E+03	    0.000000E+00	    1.000000E+00	    0.000000E+00	    0.000000E+00	
    9.217515E-03	    1.327190E-02	    0.000000E+00	    0.000000E+00	    1.000000E-03	    1.000000E-03	    1.000000E+03	    0.000000E+00	    0.000000E+00	    9.650085E+03	    0.000000E+00	    1.000000E+00	    0.000000E+00	    0.000000E+00	
    1.030065E-02	    1.179963E-02	    0.000000E+00	    0.000000E+00	    1.000000E-03	    1.000000E-03	    1.000000E+03	    0.000000E+00	    0.000000E+00	    1.215738E+04	    0.000000E+00	    1.000000E+00	    0.000000E+00	    0.000000E+00	
    1.114397E-02	    1.019700E-02	    0.000000E+00	    0.000000E+00	    1.000000E-03	    1.000000E-03	    1.000000E+03	    0.000000E+00	    0.000000E+00	    1.622396E+04	    0.000000E+00	    1.000000E+00	    0.000000E+00	    0.000000E+00	
    1.172050E-02	    8.558012E-03	    0.000000E+00	    0.000000E+00	    1.000000E-03	    1.000000E-03	    1.000000E+03	    0.000000E+00	    0.000000E+00	    2.297406E+04	    0.000000E+00	    1.000000E+00	    0.000000E+00	    0.000000E+00	
    1.204134E-02	    6.977381E-03	    0.000000E+00	    0.000000E+00	    1.000000E-03	    1.000000E-03	    1.000000E+03	    0.000000E+00	    0.000000E+00	    3.449486E+04	    0.000000E+00	    1.000000E+00	    0.000000E+00	    0.000000E+00	
    1.214872E-02	    5.532325E-03	    0.000000E+00	    0.000000E+00	    1.000000E-03	    1.000000E-03	    1.000000E+03	    0.000000E+00	    0.000000E+00	    5.478866E+04	    0.000000E+00	    1.000000E+00	    0.000000E+00	    0.000000E+00	
    1.210156E-02	    4.272264E-03	    0.000000E+00	    0.000000E+00	    1.000000E-03	    1.000000E-03	    1.000000E+03	    0.000000E+00	    0.000000E+00	    9.176967E+04	    0.000000E+00	    1.000000E+00	    0.000000E+00	    0.000000E+00	
    1.196038E-02	    3.217908E-03	    0.000000E+00	    0.000000E+00	    1.000000E-03	    1.000000E-03	    1.000000E+03	    0.000000E+00	    0.000000E+00	    1.616151E+05	    0.000000E+00	    1.000000E+00	    0.000000E+00	    0.000000E+00	
    1.177654E-02	    2.366854E-03	    0.000000E+00	    0.000000E+00	    1.000000E-03	    1.000000E-03	    1.000000E+03	    0.000000E+00	    0.000000E+00	    2.985264E+05	    0.000000E+00	    1.000000E+00	    0.000000E+00	    0.000000E+00	
    1.158734E-02	    1.701512E-03	    0.000000E+00	    0.000000E+00	    1.000000E-03	    1.000000E-03	    1.000000E+03	    0.000000E+00	    0.000000E+00	    5.773259E+05	    0.000000E+00	    1.000000E+00	    0.000000E+00	    0.000000E+00	
    1.141574E-02	    1.196364E-03	    0.000000E+00	    0.000000E+00	    1.000000E-03	    1.000000E-03	    1.000000E+03	    0.000000E+00	    0.000000E+00	    1.167312E+06	    0.000000E+00	    1.000000E+00	    0.000000E+00	    0.000000E+00	
    1.127282E-02	    8.233127E-04	    0.000000E+00	    0.000000E+00	    1.000000E-03	    1.000000E-03	    1.000000E+03	    0.000000E+00	    0.000000E+00	    2.464073E+06	    0.000000E+00	    1.000000E+00	    0.000000E+00	    0.000000E+00	
    1.116122E-02	    5.550919E-04	    0.000000E+00	    0.000000E+00	    1.000000E-03	    1.000000E-03	    1.000000E+03	    0.000000E+00	    0.000000E+00	    5.419503E+06	    0.000000E+00	    1.000000E+00	    0.000000E+00	    0.000000E+00	
    1.107851E-02	    3.672014E-04	    0.000000E+00	    0.000000E+00	    1.000000E-03	    1.000000E-03	    1.000000E+03	    0.000000E+00	    0.000000E+00	    1.238269E+07	    0.000000E+00	    1.000000E+00	    0.000000E+00	    0.000000E+00	
    1.101981E-02	    2.388396E-04	    0.000000E+00	    0.000000E+00	    1.000000E-03	    1.000000E-03	    1.000000E+03	    0.000000E+00	    0.000000E+00	    2.926616E+07	    0.000000E+00	    1.000000E+00	    0.000000E+00	    0.000000E+00	
    1.097963E-02	    1.531816E-04	    0.000000E+00	    0.000000E+00	    1.000000E-03	    1.000000E-03	    1.000000E+03	    0.000000E+00	    0.000000E+00	    7.114346E+07	    0.000000E+00	    1.000000E+00	    0.000000E+00	    0.000000E+00	
    1.095293E-02	    9.721678E-05	    0.000000E+00	    0.000000E+00	    1.000000E-03	    1.000000E-03	    1.000000E+03	    0.000000E+00	    0.000000E+00	    1.766226E+08	    0.000000E+00	    1.000000E+00	    0.000000E+00	    0.000000E+00	
    1.093562E-02	    6.130524E-05	    0.000000E+00	    0.000000E+00	    1.000000E-03	    1.000000E-03	    1.000000E+03	    0.000000E+00	    0.000000E+00	    4.441412E+08	    0.000000E+00	    1.000000E+00	    0.000000E+00	    0.000000E+00	
    1.092947E-02	    4.863435E-05	    0.000000E+00	    0.000000E+00	    1.000000E-03	    1.000000E-03	    1.000000E+03	    0.000000E+00	    0.000000E+00	    0.000000E+00	    0.000000E+00	    1.000000E+00	    0.000000E+00	    0.000000E+00	
   -1.092904E-02	    4.884033E-05	    0.000000E+00	    0.000000E+00	    1.000000E-03	    1.000000E-03	    1.000000E+03	    0.000000E+00	    0.000000E+00	    0.000000E+00	    0.000000E+00	    1.000000E+00	    0.000000E+00	    0.000000E+00	
   -1.093508E-02	    6.156425E-05	    3.946578E-04	   -1.000000E+00	    1.600000E-03	    1.600000E-03	    8.010000E+02	    2.070223E-14	    1.147904E-08	    4.441412E+08	    2.861381E+05	    1.000000E+00	    5.998300E-07	    2.511967E+02	
   -1.095207E-02	    9.762470E-05	    9.598930E-04	   -1.000000E+00	    1.600000E-03	    1.600000E-03	    8.010000E+02	    1.368972E-13	    3.018620E-08	    1.766226E+08	    6.722367E+05	    1.000000E+00	    9.511863E-07	    3.939968E+02	
   -1.097827E-02	    1.538174E-04	    1.695579E-03	   -1.000000E+00	    1.600000E-03	    1.600000E-03	    8.010000E+02	    1.062814E-12	    9.439737E-08	    7.114346E+07	    8.447573E+05	    1.000000E+00	    1.498723E-06	    4.957380E+02	
   -1.101769E-02	    2.398144E-04	    2.720584E-03	   -1.000000E+00	    1.600000E-03	    1.600000E-03	    8.010000E+02	    6.680021E-12	    2.440681E-07	    2.926616E+07	    8.945175E+05	    1.000000E+00	    2.336716E-06	    5.261418E+02	
   -1.107523E-02	    3.686618E-04	    4.184051E-03	   -1.000000E+00	    1.600000E-03	    1.600000E-03	    8.010000E+02	    3.765382E-11	    5.820917E-07	    1.238269E+07	    8.950012E+05	    1.000000E+00	    3.592372E-06	    5.287213E+02	
   -1.115622E-02	    5.572152E-04	    6.261751E-03	   -1.000000E+00	    1.600000E-03	    1.600000E-03	    8.010000E+02	    1.952843E-10	    1.321278E-06	    5.419503E+06	    8.770875E+05	    1.000000E+00	    5.430115E-06	    5.217610E+02	
   -1.126533E-02	    8.262831E-04	    9.152760E-03	   -1.000000E+00	    1.600000E-03	    1.600000E-03	    8.010000E+02	    9.363851E-10	    2.880551E-06	    2.464073E+06	    8.516637E+05	    1.000000E+00	    8.053078E-06	    5.119915E+02	
   -1.140473E-02	    1.200319E-03	    1.309703E-02	   -1.000000E+00	    1.600001E-03	    1.600000E-03	    8.010000E+02	    4.168018E-09	    6.074132E-06	    1.167312E+06	    8.256283E+05	    1.000000E+00	    1.170025E-05	    5.039892E+02	
   -1.157145E-02	    1.706443E-03	    1.835126E-02	   -1.000000E+00	    1.600003E-03	    1.600000E-03	    8.010000E+02	    1.723307E-08	    1.242085E-05	    5.773259E+05	    8.010215E+05	    1.000000E+00	    1.663713E-05	    4.994376E+02	
   -1.175409E-02	    2.372440E-03	    2.516698E-02	   -1.000000E+00	    1.600012E-03	    1.600000E-03	    8.010000E+02	    6.612502E-08	    2.464427E-05	    2.985264E+05	    7.781031E+05	    1.000000E+00	    2.313654E-05	    4.988716E+02	
   -1.192940E-02	    3.223293E-03	    3.376932E-02	   -1.000000E+00	    1.600042E-03	    1.600000E-03	    8.010000E+02	    2.352498E-07	    4.746555E-05	    1.616151E+05	    7.571992E+05	    1.000000E+00	    3.144501E-05	    5.029268E+02	
   -1.205998E-02	    4.275784E-03	    4.413364E-02	   -1.000000E+00	    1.600138E-03	    1.600000E-03	    8.010000E+02	    7.641018E-07	    8.754229E-05	    9.176967E+04	    7.324272E+05	    1.000000E+00	    4.173035E-05	    5.068406E+02	
   -1.209472E-02	    5.531278E-03	    5.637650E-02	   -1.000000E+00	    1.600410E-03	    1.600000E-03	    8.010000E+02	    2.276740E-06	    1.557297E-04	    5.478866E+04	    7.099698E+05	    1.000000E+00	    5.401093E-05	    5.154865E+02	
   -1.197392E-02	    6.967970E-03	    7.013432E-02	   -1.000000E+00	    1.601101E-03	    1.600000E-03	    8.010000E+02	    6.118041E-06	    2.634719E-04	    3.449486E+04	    6.846118E+05	    1.000000E+00	    6.807920E-05	    5.250076E+02	
   -1.164011E-02	    8.535642E-03	    8.527835E-02	   -1.000000E+00	    1.602673E-03	    1.600000E-03	    8.010000E+02	    1.485261E-05	    4.259986E-04	    2.297406E+04	    6.607723E+05	    1.000000E+00	    8.344871E-05	    5.402570E+02	
   -1.105301E-02	    1.015700E-02	    1.001854E-01	   -1.000000E+00	    1.605606E-03	    1.600000E-03	    8.010000E+02	    3.114395E-05	    6.308093E-04	    1.622396E+04	    6.249858E+05	    1.000000E+00	    9.936515E-05	    5.447310E+02	
   -1.020348E-02	    1.173829E-02	    1.147770E-01	   -1.000000E+00	    1.610520E-03	    1.600000E-03	    8.010000E+02	    5.844292E-05	    8.870320E-04	    1.215738E+04	    5.914702E+05	    1.000000E+00	    1.149084E-04	    5.533727E+02	
   -9.119833E-03	    1.318738E-02	    1.282906E-01	   -1.000000E+00	    1.617526E-03	    1.600000E-03	    8.010000E+02	    9.736474E-05	    1.173006E-03	    9.650085E+03	    5.627867E+05	    1.000000E+00	    1.291697E-04	    5.628856E+02	
   -7.862557E-03	    1.443275E-02	    1.399967E-01	   -1.000000E+00	    1.625934E-03	    1.600000E-03	    8.010000E+02	    1.440751E-04	    1.452908E-03	    8.077585E+03	    5.398740E+05	    1.000000E+00	    1.414397E-04	    5.701523E+02	
   -6.509472E-03	    1.543552E-02	    1.494653E-01	   -1.000000E+00	    1.634533E-03	    1.600000E-03	    8.010000E+02	    1.918473E-04	    1.696340E-03	    7.082553E+03	    5.226723E+05	    1.000000E+00	    1.513284E-04	    5.745827E+02	
   -5.138223E-03	    1.619067E-02	    1.566101E-01	   -1.000000E+00	    1.642165E-03	    1.600000E-03	    8.010000E+02	    2.342490E-04	    1.887589E-03	    6.454495E+03	    5.104552E+05	    1.000000E+00	    1.587806E-04	    5.768665E+02	
   -3.812957E-03	    1.671944E-02	    1.616143E-01	   -1.000000E+00	    1.648121E-03	    1.600000E-03	    8.010000E+02	    2.673384E-04	    2.024433E-03	    6.065611E+03	    5.022602E+05	    1.000000E+00	    1.640015E-04	    5.778734E+02	
   -2.578217E-03	    1.705809E-02	    1.648165E-01	   -1.000000E+00	    1.652203E-03	    1.600000E-03	    8.010000E+02	    2.900172E-04	    2.112959E-03	    5.835791E+03	    4.971523E+05	    1.000000E+00	    1.673465E-04	    5.782423E+02	
   -1.459141E-03	    1.724769E-02	    1.666051E-01	   -1.000000E+00	    1.654578E-03	    1.600000E-03	    8.010000E+02	    3.032133E-04	    2.162676E-03	    5.713150E+03	    4.943248E+05	    1.000000E+00	    1.692195E-04	    5.783354E+02	
   -4.652344E-04	    1.732705E-02	    1.673470E-01	   -1.000000E+00	    1.655588E-03	    1.600000E-03	    8.010000E+02	    3.088233E-04	    2.183364E-03	    5.663026E+03	    4.931182E+05	    1.000000E+00	    1.700037E-04	    5.783104E+02	
    4.652344E-04	    1.732705E-02	    1.673470E-01	   -1.000000E+00	    1.655588E-03	    1.600000E-03	    8.010000E+02	    3.088233E-04	    2.183364E-03	    5.663026E+03	    4.931182E+05	    1.000000E+00	    1.700037E-04	    5.783104E+02	
    1.459141E-03	    1.724769E-02	    1.666051E-01	   -1.000000E+00	    1.654578E-03	    1.600000E-03	    8.010000E+02	    3.032133E-04	    2.162676E-03	    5.713150E+03	    4.943248E+05	    1.000000E+00	    1.692195E-04	    5.783354E+02	
    2.578217E-03	    1.705809E-02	    1.648165E-01	   -1.000000E+00	    1.652203E-03	    1.600000E-03	    8.010000E+02	    2.900172E-04	    2.112959E-03	    5.835791E+03	    4.971523E+05	    1.000000E+00	    1.673465E-04	    5.782423E+02	
    3.812957E-03	    1.671944E-02	    1.616143E-01	   -1.000000E+00	    1.648121E-03	    1.600000E-03	    8.010000E+02	    2.673384E-04	    2.024433E-03	    6.065611E+03	    5.022602E+05	    1.000000E+00	    1.640015E-04	    5.778734E+02	
    5.138223E-03	    1.619067E-02	    1.566101E-01	   -1.000000E+00	    1.642165E-03	    1.600000E-03	    8.010000E+02	    2.342490E-04	    1.887589E-03	    6.454495E+03	    5.104552E+05	    1.000000E+00	    1.587806E-04	    5.768665E+02	
    6.509472E-03	    1.543552E-02	    1.494653E-01	   -1.000000E+00	    1.634533E-03	    1.600000E-03	    8.010000E+02	    1.918473E-04	    1.696340E-03	    7.082553E+03	    5.226723E+05	    1.000000E+00	    1.513284E-04	    5.745827E+02	
    7.862557E-03	    1.443275E-02	    1.399967E-01	   -1.000000E+00	    1.625934E-03	    1.600000E-03	    8.010000E+02	    1.440751E-04	    1.452908E-03	    8.077585E+03	    5.398740E+05	    1.000000E+00	    1.414397E-04	    5.701523E+02	
    9.119833E-03	    1.318738E-02	    1.282906E-01	   -1.000000E+00	    1.617526E-03	    1.600000E-03	    8.010000E+02	    9.736474E-05	    1.173006E-03	    9.650085E+03	    5.627867E+05	    1.000000E+00	    1.291697E-04	    5.628856E+02	
    1.020348E-02	    1.173829E-02	    1.147770E-01	   -1.000000E+00	    1.610520E-03	    1.600000E-03	    8.010000E+02	    5.844292E-05	    8.870320E-04	    1.215738E+04	    5.914702E+05	    1.000000E+00	    1.149084E-04	    5.533727E+02	
    1.105301E-02	    1.015700E-02	    1.001854E-01	   -1.000000E+00	    1.605606E-03	    1.600000E-03	    8.010000E+02	    3.114395E-05	    6.308093E-04	    1.622396E+04	    6.249858E+05	    1.000000E+00	    9.936515E-05	    5.447310E+02	
    1.164011E-02	    8.535642E-03	    8.527835E-02	   -1.000000E+00	    1.602673E-03	    1.600000E-03	    8.010000E+02	    1.485261E-05	    4.259986E-04	    2.297406E+04	    6.607723E+05	    1.000000E+00	    8.344871E-05	    5.402570E+02	
    1.197392E-02	    6.967970E-03	    7.013432E-02	   -1.000000E+00	    1.601101E-03	    1.600000E-03	    8.010000E+02	    6.118041E-06	    2.634719E-04	    3.449486E+04	    6.846118E+05	    1.000000E+00	    6.807920E-05	    5.250076E+02	
    1.209472E-02	    5.531278E-03	    5.637650E-02	   -1.000000E+00	    1.600410E-03	    1.600000E-03	    8.010000E+02	    2.276740E-06	    1.557297E-04	    5.478866E+04	    7.099698E+05	    1.000000E+00	    5.401093E-05	    5.154865E+02	
    1.205998E-02	    4.275784E-03	    4.413364E-02	   -1.000000E+00	    1.600138E-03	    1.600000E-03	    8.010000E+02	    7.641018E-07	    8.754229E-05	    9.176967E+04	    7.324272E+05	    1.000000E+00	    4.173035E-05	    5.068406E+02	
    1.192940E-02	    3.223293E-03	    3.376932E-02	   -1.000000E+00	    1.600042E-03	    1.600000E-03	    8.010000E+02	    2.352498E-07	    4.746555E-05	    1.616151E+05	    7.571992E+05	    1.000000E+00	    3.144501E-05	    5.029268E+02	
    1.175409E-02	    2.372440E-03	    2.516698E-02	   -1.000000E+00	    1.600012E-03	    1.600000E-03	    8.010000E+02	    6.612502E-08	    2.464427E-05	    2.985264E+05	    7.781031E+05	    1.000000E+00	    2.313654E-05	    4.988716E+02	
    1.157145E-02	    1.706443E-03	    1.835126E-02	   -1.000000E+00	    1.600003E-03	    1.600000E-03	    8.010000E+02	    1.723307E-08	    1.242085E-05	    5.773259E+05	    8.010215E+05	    1.000000E+00	    1.663713E-05	    4.994376E+02	
    1.140473E-02	    1.200319E-03	    1.309703E-02	   -1.000000E+00	    1.600001E-03	    1.600000E-03	    8.010000E+02	    4.168018E-09	    6.074132E-06	    1.167312E+06	    8.256283E+05	    1.000000E+00	    1.170025E-05	    5.039892E+02	
    1.126533E-02	    8.262831E-04	    9.152760E-03	   -1.000000E+00	    1.600000E-03	    1.600000E-03	    8.010000E+02	    9.363851E-10	    2.880551E-06	    2.464073E+06	    8.516637E+05	    1.000000E+00	    8.053078E-06	    5.119915E+02	
    1.115622E-02	    5.572152E-04	    6.261751E-03	   -1.000000E+00	    1.600000E-03	    1.600000E-03	    8.010000E+02	    1.952843E-10	    1.321278E-06	    5.419503E+06	    8.770875E+05	    1.000000E+00	    5.430115E-06	    5.217610E+02	
    1.107523E-02	    3.686618E-04	    4.184051E-03	   -1.000000E+00	    1.600000E-03	    1.600000E-03	    8.010000E+02	    3.765382E-11	    5.820917E-07	    1.238269E+07	    8.950012E+05	    1.000000E+00	    3.592372E-06	    5.287213E+02	
    1.101769E-02	    2.398144E-04	    2.720584E-03	   -1.000000E+00	    1.600000E-03	    1.600000E-03	    8.010000E+02	    6.680021E-12	    2.440681E-07	    2.926616E+07	    8.945175E+05	    1.000000E+00	    2.336716E-06	    5.261418E+02	
    1.097827E-02	    1.538174E-04	    1.695579E-03	   -1.000000E+00	    1.600000E-03	    1.600000E-03	    8.010000E+02	    1.062814E-12	    9.439737E-08	    7.114346E+07	    8.447573E+05	    1.000000E+00	    1.498723E-06	    4.957380E+02	
    1.095207E-02	    9.762470E-05	    9.598930E-04	   -1.000000E+00	    1.600000E-03	    1.600000E-03	    8.010000E+02	    1.368972E-13	    3.018620E-08	    1.766226E+08	    6.722367E+05	    1.000000E+00	    9.511863E-07	    3.939968E+02	
    1.093508E-02	    6.156425E-05	    3.946578E-04	   -1.000000E+00	    1.600000E-03	    1.600000E-03	    8.010000E+02	    2.070223E-14	    1.147904E-08	    4.441412E+08	    2.861381E+05	    1.000000E+00	    5.998300E-07	    2.511967E+02	
    1.092904E-02	    4.884033E-05	    0.000000E+00	    0.000000E+00	    1.000000E-03	    1.000000E-03	    1.000000E+03	    0.000000E+00	    0.000000E+00	    8.060865E+05	    0.000000E+00	    1.000000E+00	    0.000000E+00	    0.000000E+00	
   -1.092804E-02	    4.930248E-05	    0.000000E+00	    0.000000E+00	    1.000000E-03	    1.000000E-03	    1.000000E+03	    0.000000E+00	    0.000000E+00	    8.060865E+05	    0.000000E+00	    1.000000E+00	    0.000000E+00	    0.000000E+00	
   -1.093381E-02	    6.214532E-05	    9.652175E-04	   -1.000000E+00	    1.600000E-03	    1.600000E-03	    8.010000E+02	    1.317023E-10	    1.325386E-07	    8.060865E+05	    1.715473E+05	    1.000000E+00	    1.987877E-06	    3.788762E+00	
   -1.095007E-02	    9.853947E-05	    2.347598E-03	   -1.000000E+00	    1.600000E-03	    1.600000E-03	    8.010000E+02	    1.583920E-13	    4.866044E-09	    2.460794E+07	    3.981343E+05	    1.121183E-03	    3.152189E-06	    6.306130E-08	
   -1.097511E-02	    1.552424E-04	    4.146521E-03	   -1.000000E+00	    1.600000E-03	    1.600000E-03	    8.010000E+02	    1.514668E-12	    1.887586E-08	    9.982101E+06	    4.997829E+05	    1.574310E-01	    4.966439E-06	    7.570050E-07	
   -1.101274E-02	    2.419971E-04	    6.652214E-03	   -1.000000E+00	    1.600000E-03	    1.600000E-03	    8.010000E+02	    1.254081E-11	    6.669056E-08	    4.259623E+06	    5.289305E+05	    1.000000E+00	    7.742741E-06	    6.633219E-06	
   -1.106759E-02	    3.719275E-04	    1.022833E-02	   -1.000000E+00	    1.600000E-03	    1.600000E-03	    8.010000E+02	    1.072204E-10	    2.413167E-07	    1.802778E+06	    5.289208E+05	    1.000000E+00	    1.190194E-05	    5.671112E-05	
   -1.114459E-02	    5.619528E-04	    1.530240E-02	   -1.000000E+00	    1.600000E-03	    1.600000E-03	    8.010000E+02	    8.586995E-10	    8.461790E-07	    7.893209E+05	    5.179421E+05	    1.000000E+00	    1.798742E-05	    4.447566E-04	
   -1.124793E-02	    8.328892E-04	    2.235651E-02	   -1.000000E+00	    1.600001E-03	    1.600000E-03	    8.010000E+02	    6.288001E-09	    2.818806E-06	    3.590750E+05	    5.023669E+05	    1.000000E+00	    2.666936E-05	    3.158884E-03	
   -1.137915E-02	    1.209070E-03	    3.196869E-02	   -1.000000E+00	    1.600008E-03	    1.600000E-03	    8.010000E+02	    4.185834E-08	    8.895988E-06	    1.702334E+05	    4.862125E+05	    1.000000E+00	    3.873415E-05	    2.035205E-02	
   -1.153459E-02	    1.717259E-03	    4.475112E-02	   -1.000000E+00	    1.600045E-03	    1.600000E-03	    8.010000E+02	    2.509188E-07	    2.639981E-05	    8.427527E+04	    4.705040E+05	    1.000000E+00	    5.505186E-05	    1.180583E-01	
   -1.170210E-02	    2.384514E-03	    6.129230E-02	   -1.000000E+00	    1.600242E-03	    1.600000E-03	    8.010000E+02	    1.345030E-06	    7.325414E-05	    4.362472E+04	    4.547290E+05	    1.000000E+00	    7.651071E-05	    6.116242E-01	
   -1.185782E-02	    3.234565E-03	    8.209680E-02	   -1.000000E+00	    1.601159E-03	    1.600000E-03	    8.010000E+02	    6.440897E-06	    1.900477E-04	    2.363463E+04	    4.367063E+05	    1.000000E+00	    1.039038E-04	    2.812780E+00	
   -1.196418E-02	    4.282347E-03	    1.070066E-01	   -1.000000E+00	    1.604816E-03	    1.600000E-03	    8.010000E+02	    2.675812E-05	    4.480852E-04	    1.341336E+04	    4.076199E+05	    1.000000E+00	    1.377547E-04	    1.090714E+01	
   -1.197072E-02	    5.526877E-03	    1.360698E-01	   -1.000000E+00	    1.617553E-03	    1.600000E-03	    8.010000E+02	    9.751618E-05	    9.733388E-04	    7.995026E+03	    3.669922E+05	    1.000000E+00	    1.780862E-04	    3.578768E+01	
   -1.181968E-02	    6.943934E-03	    1.678051E-01	   -1.000000E+00	    1.653869E-03	    1.600000E-03	    8.010000E+02	    2.992704E-04	    1.884178E-03	    5.043019E+03	    3.167347E+05	    1.000000E+00	    2.241741E-04	    9.478933E+01	
   -1.145697E-02	    8.481618E-03	    2.008002E-01	   -1.000000E+00	    1.736786E-03	    1.600000E-03	    8.010000E+02	    7.599218E-04	    3.230393E-03	    3.405014E+03	    2.674213E+05	    1.000000E+00	    2.743862E-04	    2.032193E+02	
   -1.084669E-02	    1.006264E-02	    2.304198E-01	   -1.000000E+00	    1.871084E-03	    1.600000E-03	    8.010000E+02	    1.506023E-03	    4.666033E-03	    2.481697E+03	    2.254362E+05	    1.000000E+00	    3.262337E-04	    3.395121E+02	
   -9.984002E-03	    1.159554E-02	    2.562414E-01	   -1.000000E+00	    2.058517E-03	    1.600000E-03	    8.010000E+02	    2.547319E-03	    6.176861E-03	    1.942304E+03	    1.898670E+05	    1.000000E+00	    3.767179E-04	    4.836517E+02	
   -8.900030E-03	    1.299251E-02	    2.775116E-01	   -1.000000E+00	    2.275476E-03	    1.600000E-03	    8.010000E+02	    3.752646E-03	    7.566484E-03	    1.615061E+03	    1.616732E+05	    1.000000E+00	    4.229115E-04	    6.067023E+02	
   -7.655632E-03	    1.418719E-02	    2.942187E-01	   -1.000000E+00	    2.489815E-03	    1.600000E-03	    8.010000E+02	    4.943419E-03	    8.698316E-03	    1.409419E+03	    1.407378E+05	    1.000000E+00	    4.625580E-04	    6.957260E+02	