Title="Fields"
Variables="X""Y""Velocity""Phi""Effective Viscosity""Dynamic Viscosity""Density""Eddy Viscosity""K""Epsilon""S"
Zone I=52 J=52 F=POINT
   -1.105754E-02	    4.978633E-05	    0.000000E+00	    0.000000E+00	    1.000000E-03	    1.000000E-03	    1.000000E+03	    0.000000E+00	    0.000000E+00	    0.000000E+00	    0.000000E+00	
   -1.106344E-02	    6.275554E-05	    0.000000E+00	    0.000000E+00	    1.000000E-03	    1.000000E-03	    1.000000E+03	    0.000000E+00	    0.000000E+00	    0.000000E+00	    0.000000E+00	
   -1.108005E-02	    9.950850E-05	    0.000000E+00	    0.000000E+00	    1.000000E-03	    1.000000E-03	    1.000000E+03	    0.000000E+00	    0.000000E+00	    0.000000E+00	    0.000000E+00	
   -1.110564E-02	    1.567726E-04	    0.000000E+00	    0.000000E+00	    1.000000E-03	    1.000000E-03	    1.000000E+03	    0.000000E+00	    0.000000E+00	    0.000000E+00	    0.000000E+00	
   -1.114411E-02	    2.443910E-04	    0.000000E+00	    0.000000E+00	    1.000000E-03	    1.000000E-03	    1.000000E+03	    0.000000E+00	    0.000000E+00	    0.000000E+00	    0.000000E+00	
   -1.120020E-02	    3.756264E-04	    0.000000E+00	    0.000000E+00	    1.000000E-03	    1.000000E-03	    1.000000E+03	    0.000000E+00	    0.000000E+00	    0.000000E+00	    0.000000E+00	
   -1.127899E-02	    5.675850E-04	    0.000000E+00	    0.000000E+00	    1.000000E-03	    1.000000E-03	    1.000000E+03	    0.000000E+00	    0.000000E+00	    0.000000E+00	    0.000000E+00	
   -1.138481E-02	    8.413287E-04	    0.000000E+00	    0.000000E+00	    1.000000E-03	    1.000000E-03	    1.000000E+03	    0.000000E+00	    0.000000E+00	    0.000000E+00	    0.000000E+00	
   -1.151938E-02	    1.221507E-03	    0.000000E+00	    0.000000E+00	    1.000000E-03	    1.000000E-03	    1.000000E+03	    0.000000E+00	    0.000000E+00	    0.000000E+00	    0.000000E+00	
   -1.167912E-02	    1.735278E-03	    0.000000E+00	    0.000000E+00	    1.000000E-03	    1.000000E-03	    1.000000E+03	    0.000000E+00	    0.000000E+00	    0.000000E+00	    0.000000E+00	
   -1.185192E-02	    2.410182E-03	    0.000000E+00	    0.000000E+00	    1.000000E-03	    1.000000E-03	    1.000000E+03	    0.000000E+00	    0.000000E+00	    0.000000E+00	    0.000000E+00	
   -1.201375E-02	    3.270505E-03	    0.000000E+00	    0.000000E+00	    1.000000E-03	    1.000000E-03	    1.000000E+03	    0.000000E+00	    0.000000E+00	    0.000000E+00	    0.000000E+00	
   -1.212663E-02	    4.331759E-03	    0.000000E+00	    0.000000E+00	    1.000000E-03	    1.000000E-03	    1.000000E+03	    0.000000E+00	    0.000000E+00	    0.000000E+00	    0.000000E+00	
   -1.213936E-02	    5.593457E-03	    0.000000E+00	    0.000000E+00	    1.000000E-03	    1.000000E-03	    1.000000E+03	    0.000000E+00	    0.000000E+00	    0.000000E+00	    0.000000E+00	
   -1.199305E-02	    7.031607E-03	    0.000000E+00	    0.000000E+00	    1.000000E-03	    1.000000E-03	    1.000000E+03	    0.000000E+00	    0.000000E+00	    0.000000E+00	    0.000000E+00	
   -1.163224E-02	    8.594043E-03	    0.000000E+00	    0.000000E+00	    1.000000E-03	    1.000000E-03	    1.000000E+03	    0.000000E+00	    0.000000E+00	    0.000000E+00	    0.000000E+00	
   -1.101967E-02	    1.020254E-02	    0.000000E+00	    0.000000E+00	    1.000000E-03	    1.000000E-03	    1.000000E+03	    0.000000E+00	    0.000000E+00	    0.000000E+00	    0.000000E+00	
   -1.014951E-02	    1.176405E-02	    0.000000E+00	    0.000000E+00	    1.000000E-03	    1.000000E-03	    1.000000E+03	    0.000000E+00	    0.000000E+00	    0.000000E+00	    0.000000E+00	
   -9.052689E-03	    1.318877E-02	    0.000000E+00	    0.000000E+00	    1.000000E-03	    1.000000E-03	    1.000000E+03	    0.000000E+00	    0.000000E+00	    0.000000E+00	    0.000000E+00	
   -7.790715E-03	    1.440846E-02	    0.000000E+00	    0.000000E+00	    1.000000E-03	    1.000000E-03	    1.000000E+03	    0.000000E+00	    0.000000E+00	    0.000000E+00	    0.000000E+00	
   -6.440721E-03	    1.538739E-02	    0.000000E+00	    0.000000E+00	    1.000000E-03	    1.000000E-03	    1.000000E+03	    0.000000E+00	    0.000000E+00	    0.000000E+00	    0.000000E+00	
   -5.078456E-03	    1.612273E-02	    0.000000E+00	    0.000000E+00	    1.000000E-03	    1.000000E-03	    1.000000E+03	    0.000000E+00	    0.000000E+00	    0.000000E+00	    0.000000E+00	
   -3.765754E-03	    1.663668E-02	    0.000000E+00	    0.000000E+00	    1.000000E-03	    1.000000E-03	    1.000000E+03	    0.000000E+00	    0.000000E+00	    0.000000E+00	    0.000000E+00	
   -2.545066E-03	    1.696544E-02	    0.000000E+00	    0.000000E+00	    1.000000E-03	    1.000000E-03	    1.000000E+03	    0.000000E+00	    0.000000E+00	    0.000000E+00	    0.000000E+00	
   -1.439989E-03	    1.714935E-02	    0.000000E+00	    0.000000E+00	    1.000000E-03	    1.000000E-03	    1.000000E+03	    0.000000E+00	    0.000000E+00	    0.000000E+00	    0.000000E+00	
   -4.590758E-04	    1.722631E-02	    0.000000E+00	    0.000000E+00	    1.000000E-03	    1.000000E-03	    1.000000E+03	    0.000000E+00	    0.000000E+00	    0.000000E+00	    0.000000E+00	
    4.590758E-04	    1.722631E-02	    0.000000E+00	    0.000000E+00	    1.000000E-03	    1.000000E-03	    1.000000E+03	    0.000000E+00	    0.000000E+00	    0.000000E+00	    0.000000E+00	
    1.439989E-03	    1.714935E-02	    0.000000E+00	    0.000000E+00	    1.000000E-03	    1.000000E-03	    1.000000E+03	    0.000000E+00	    0.000000E+00	    0.000000E+00	    0.000000E+00	
    2.545066E-03	    1.696544E-02	    0.000000E+00	    0.000000E+00	    1.000000E-03	    1.000000E-03	    1.000000E+03	    0.000000E+00	    0.000000E+00	    0.000000E+00	    0.000000E+00	
    3.765754E-03	    1.663668E-02	    0.000000E+00	    0.000000E+00	    1.000000E-03	    1.000000E-03	    1.000000E+03	    0.000000E+00	    0.000000E+00	    0.000000E+00	    0.000000E+00	
    5.078456E-03	    1.612273E-02	    0.000000E+00	    0.000000E+00	    1.000000E-03	    1.000000E-03	    1.000000E+03	    0.000000E+00	    0.000000E+00	    0.000000E+00	    0.000000E+00	
    6.440721E-03	    1.538739E-02	    0.000000E+00	    0.000000E+00	    1.000000E-03	    1.000000E-03	    1.000000E+03	    0.000000E+00	    0.000000E+00	    0.000000E+00	    0.000000E+00	
    7.790715E-03	    1.440846E-02	    0.000000E+00	    0.000000E+00	    1.000000E-03	    1.000000E-03	    1.000000E+03	    0.000000E+00	    0.000000E+00	    0.000000E+00	    0.000000E+00	
    9.052689E-03	    1.318877E-02	    0.000000E+00	    0.000000E+00	    1.000000E-03	    1.000000E-03	    1.000000E+03	    0.000000E+00	    0.000000E+00	    0.000000E+00	    0.000000E+00	
    1.014951E-02	    1.176405E-02	    0.000000E+00	    0.000000E+00	    1.000000E-03	    1.000000E-03	    1.000000E+03	    0.000000E+00	    0.000000E+00	    0.000000E+00	    0.000000E+00	
    1.101967E-02	    1.020254E-02	    0.000000E+00	    0.000000E+00	    1.000000E-03	    1.000000E-03	    1.000000E+03	    0.000000E+00	    0.000000E+00	    0.000000E+00	    0.000000E+00	
    1.163224E-02	    8.594043E-03	    0.000000E+00	    0.000000E+00	    1.000000E-03	    1.000000E-03	    1.000000E+03	    0.000000E+00	    0.000000E+00	    0.000000E+00	    0.000000E+00	
    1.199305E-02	    7.031607E-03	    0.000000E+00	    0.000000E+00	    1.000000E-03	    1.000000E-03	    1.000000E+03	    0.000000E+00	    0.000000E+00	    0.000000E+00	    0.000000E+00	
    1.213936E-02	    5.593457E-03	    0.000000E+00	    0.000000E+00	    1.000000E-03	    1.000000E-03	    1.000000E+03	    0.000000E+00	    0.000000E+00	    0.000000E+00	    0.000000E+00	
    1.212663E-02	    4.331759E-03	    0.000000E+00	    0.000000E+00	    1.000000E-03	    1.000000E-03	    1.000000E+03	    0.000000E+00	    0.000000E+00	    0.000000E+00	    0.000000E+00	
    1.201375E-02	    3.270505E-03	    0.000000E+00	    0.000000E+00	    1.000000E-03	    1.000000E-03	    1.000000E+03	    0.000000E+00	    0.000000E+00	    0.000000E+00	    0.000000E+00	
    1.185192E-02	    2.410182E-03	    0.000000E+00	    0.000000E+00	    1.000000E-03	    1.000000E-03	    1.000000E+03	    0.000000E+00	    0.000000E+00	    0.000000E+00	    0.000000E+00	
    1.167912E-02	    1.735278E-03	    0.000000E+00	    0.000000E+00	    1.000000E-03	    1.000000E-03	    1.000000E+03	    0.000000E+00	    0.000000E+00	    0.000000E+00	    0.000000E+00	
    1.151938E-02	    1.221507E-03	    0.000000E+00	    0.000000E+00	    1.000000E-03	    1.000000E-03	    1.000000E+03	    0.000000E+00	    0.000000E+00	    0.000000E+00	    0.000000E+00	
    1.138481E-02	    8.413287E-04	    0.000000E+00	    0.000000E+00	    1.000000E-03	    1.000000E-03	    1.000000E+03	    0.000000E+00	    0.000000E+00	    0.000000E+00	    0.000000E+00	
    1.127899E-02	    5.675850E-04	    0.000000E+00	    0.000000E+00	    1.000000E-03	    1.000000E-03	    1.000000E+03	    0.000000E+00	    0.000000E+00	    0.000000E+00	    0.000000E+00	
    1.120020E-02	    3.756264E-04	    0.000000E+00	    0.000000E+00	    1.000000E-03	    1.000000E-03	    1.000000E+03	    0.000000E+00	    0.000000E+00	    0.000000E+00	    0.000000E+00	
    1.114411E-02	    2.443910E-04	    0.000000E+00	    0.000000E+00	    1.000000E-03	    1.000000E-03	    1.000000E+03	    0.000000E+00	    0.000000E+00	    0.000000E+00	    0.000000E+00	
    1.110564E-02	    1.567726E-04	    0.000000E+00	    0.000000E+00	    1.000000E-03	    1.000000E-03	    1.000000E+03	    0.000000E+00	    0.000000E+00	    0.000000E+00	    0.000000E+00	
    1.108005E-02	    9.950850E-05	    0.000000E+00	    0.000000E+00	    1.000000E-03	    1.000000E-03	    1.000000E+03	    0.000000E+00	    0.000000E+00	    0.000000E+00	    0.000000E+00	
    1.106344E-02	    6.275554E-05	    0.000000E+00	    0.000000E+00	    1.000000E-03	    1.000000E-03	    1.000000E+03	    0.000000E+00	    0.000000E+00	    0.000000E+00	    0.000000E+00	
    1.105754E-02	    4.978633E-05	    0.000000E+00	    0.000000E+00	    1.000000E-03	    1.000000E-03	    1.000000E+03	    0.000000E+00	    0.000000E+00	    0.000000E+00	    0.000000E+00	
   -1.105711E-02	    4.998153E-05	    0.000000E+00	    0.000000E+00	    1.000000E-03	    1.000000E-03	    1.000000E+03	    0.000000E+00	    0.000000E+00	    0.000000E+00	    0.000000E+00	
   -1.106289E-02	    6.300094E-05	    3.889482E-04	   -1.000000E+00	    1.601162E-03	    1.600000E-03	    8.010000E+02	    6.457936E-06	    3.587037E-03	    1.436326E+02	    2.766023E+05	
   -1.107918E-02	    9.989474E-05	    9.333612E-04	   -1.000000E+00	    1.601281E-03	    1.600000E-03	    8.010000E+02	    7.117808E-06	    1.733154E-03	    3.042308E+01	    6.360959E+05	
   -1.110427E-02	    1.573741E-04	    1.668177E-03	   -1.000000E+00	    1.602209E-03	    1.600000E-03	    8.010000E+02	    1.227227E-05	    2.075840E-03	    2.531266E+01	    8.182002E+05	
   -1.114196E-02	    2.453116E-04	    2.715915E-03	   -1.000000E+00	    1.603973E-03	    1.600000E-03	    8.010000E+02	    2.207254E-05	    2.763433E-03	    2.494139E+01	    8.916392E+05	
   -1.119688E-02	    3.770024E-04	    4.212095E-03	   -1.000000E+00	    1.606852E-03	    1.600000E-03	    8.010000E+02	    3.806818E-05	    3.479938E-03	    2.293274E+01	    9.065113E+05	
   -1.127395E-02	    5.695781E-04	    6.327435E-03	   -1.000000E+00	    1.611354E-03	    1.600000E-03	    8.010000E+02	    6.307846E-05	    4.185289E-03	    2.001912E+01	    8.938309E+05	
   -1.137727E-02	    8.441010E-04	    9.276925E-03	   -1.000000E+00	    1.618145E-03	    1.600000E-03	    8.010000E+02	    1.008057E-04	    4.865839E-03	    1.693189E+01	    8.711584E+05	
   -1.150830E-02	    1.225165E-03	    1.330583E-02	   -1.000000E+00	    1.628007E-03	    1.600000E-03	    8.010000E+02	    1.555966E-04	    5.501200E-03	    1.402134E+01	    8.450563E+05	
   -1.166318E-02	    1.739772E-03	    1.867080E-02	   -1.000000E+00	    1.641788E-03	    1.600000E-03	    8.010000E+02	    2.321546E-04	    6.070725E-03	    1.144403E+01	    8.165100E+05	
   -1.182946E-02	    2.415142E-03	    2.561286E-02	   -1.000000E+00	    1.660324E-03	    1.600000E-03	    8.010000E+02	    3.351343E-04	    6.561343E-03	    9.260653E+00	    7.843728E+05	
   -1.198288E-02	    3.275019E-03	    3.432046E-02	   -1.000000E+00	    1.684349E-03	    1.600000E-03	    8.010000E+02	    4.686040E-04	    6.971573E-03	    7.477056E+00	    7.475872E+05	
   -1.208539E-02	    4.334124E-03	    4.488170E-02	   -1.000000E+00	    1.714363E-03	    1.600000E-03	    8.010000E+02	    6.353517E-04	    7.311563E-03	    6.065706E+00	    7.067180E+05	
   -1.208610E-02	    5.590972E-03	    5.722198E-02	   -1.000000E+00	    1.750426E-03	    1.600000E-03	    8.010000E+02	    8.356988E-04	    7.594153E-03	    4.974895E+00	    6.639727E+05	
   -1.192698E-02	    7.020565E-03	    7.104468E-02	   -1.000000E+00	    1.791874E-03	    1.600000E-03	    8.010000E+02	    1.065966E-03	    7.827221E-03	    4.143304E+00	    6.221721E+05	
   -1.155402E-02	    8.570057E-03	    8.580385E-02	   -1.000000E+00	    1.837144E-03	    1.600000E-03	    8.010000E+02	    1.317465E-03	    8.013913E-03	    3.514189E+00	    5.837293E+05	
   -1.093181E-02	    1.016128E-02	    1.007416E-01	   -1.000000E+00	    1.883842E-03	    1.600000E-03	    8.010000E+02	    1.576900E-03	    8.156409E-03	    3.041367E+00	    5.501885E+05	
   -1.005632E-02	    1.170219E-02	    1.150063E-01	   -1.000000E+00	    1.929132E-03	    1.600000E-03	    8.010000E+02	    1.828510E-03	    8.258821E-03	    2.689143E+00	    5.222268E+05	
   -8.959603E-03	    1.310485E-02	    1.278228E-01	   -1.000000E+00	    1.970324E-03	    1.600000E-03	    8.010000E+02	    2.057358E-03	    8.327816E-03	    2.430118E+00	    4.998545E+05	
   -7.703280E-03	    1.430318E-02	    1.386450E-01	   -1.000000E+00	    2.005438E-03	    1.600000E-03	    8.010000E+02	    2.252433E-03	    8.371456E-03	    2.242979E+00	    4.826440E+05	
   -6.363584E-03	    1.526331E-02	    1.472299E-01	   -1.000000E+00	    2.033492E-03	    1.600000E-03	    8.010000E+02	    2.408290E-03	    8.397520E-03	    2.110904E+00	    4.699230E+05	
   -5.014764E-03	    1.598357E-02	    1.536179E-01	   -1.000000E+00	    2.054478E-03	    1.600000E-03	    8.010000E+02	    2.524877E-03	    8.412317E-03	    2.020533E+00	    4.609221E+05	
   -3.717039E-03	    1.648649E-02	    1.580498E-01	   -1.000000E+00	    2.069094E-03	    1.600000E-03	    8.010000E+02	    2.606080E-03	    8.420309E-03	    1.961297E+00	    4.548782E+05	
   -2.511501E-03	    1.680799E-02	    1.608680E-01	   -1.000000E+00	    2.078417E-03	    1.600000E-03	    8.010000E+02	    2.657874E-03	    8.424329E-03	    1.924914E+00	    4.510987E+05	
   -1.420794E-03	    1.698777E-02	    1.624352E-01	   -1.000000E+00	    2.083618E-03	    1.600000E-03	    8.010000E+02	    2.686766E-03	    8.426032E-03	    1.904984E+00	    4.489930E+05	
   -4.529294E-04	    1.706298E-02	    1.630822E-01	   -1.000000E+00	    2.085782E-03	    1.600000E-03	    8.010000E+02	    2.698790E-03	    8.426329E-03	    1.896631E+00	    4.480794E+05	
    4.529294E-04	    1.706298E-02	    1.630822E-01	   -1.000000E+00	    2.085782E-03	    1.600000E-03	    8.010000E+02	    2.698790E-03	    8.426329E-03	    1.896631E+00	    4.480794E+05	
    1.420794E-03	    1.698777E-02	    1.624352E-01	   -1.000000E+00	    2.083618E-03	    1.600000E-03	    8.010000E+02	    2.686766E-03	    8.426032E-03	    1.904984E+00	    4.489930E+05	
    2.511501E-03	    1.680799E-02	    1.608680E-01	   -1.000000E+00	    2.078417E-03	    1.600000E-03	    8.010000E+02	    2.657874E-03	    8.424329E-03	    1.924914E+00	    4.510987E+05	
    3.717039E-03	    1.648649E-02	    1.580498E-01	   -1.000000E+00	    2.069094E-03	    1.600000E-03	    8.010000E+02	    2.606080E-03	    8.420309E-03	    1.961297E+00	    4.548782E+05	
    5.014764E-03	    1.598357E-02	    1.536179E-01	   -1.000000E+00	    2.054478E-03	    1.600000E-03	    8.010000E+02	    2.524877E-03	    8.412317E-03	    2.020533E+00	    4.609221E+05	
    6.363584E-03	    1.526331E-02	    1.472299E-01	   -1.000000E+00	    2.033492E-03	    1.600000E-03	    8.010000E+02	    2.408290E-03	    8.397520E-03	    2.110904E+00	    4.699230E+05	
    7.703280E-03	    1.430318E-02	    1.386450E-01	   -1.000000E+00	    2.005438E-03	    1.600000E-03	    8.010000E+02	    2.252433E-03	    8.371456E-03	    2.242979E+00	    4.826440E+05	
    8.959603E-03	    1.310485E-02	    1.278228E-01	   -1.000000E+00	    1.970324E-03	    1.600000E-03	    8.010000E+02	    2.057358E-03	    8.327816E-03	    2.430118E+00	    4.998545E+05	
    1.005632E-02	    1.170219E-02	    1.150063E-01	   -1.000000E+00	    1.929132E-03	    1.600000E-03	    8.010000E+02	    1.828510E-03	    8.258821E-03	    2.689143E+00	    5.222268E+05	
    1.093181E-02	    1.016128E-02	    1.007416E-01	   -1.000000E+00	    1.883842E-03	    1.600000E-03	    8.010000E+02	    1.576900E-03	    8.156409E-03	    3.041367E+00	    5.501885E+05	
    1.155402E-02	    8.570057E-03	    8.580385E-02	   -1.000000E+00	    1.837144E-03	    1.600000E-03	    8.010000E+02	    1.317465E-03	    8.013913E-03	    3.514189E+00	    5.837293E+05	
    1.192698E-02	    7.020565E-03	    7.104468E-02	   -1.000000E+00	    1.791874E-03	    1.600000E-03	    8.010000E+02	    1.065966E-03	    7.827221E-03	    4.143304E+00	    6.221721E+05	
    1.208610E-02	    5.590972E-03	    5.722198E-02	   -1.000000E+00	    1.750426E-03	    1.600000E-03	    8.010000E+02	    8.356988E-04	    7.594153E-03	    4.974895E+00	    6.639727E+05	
    1.208539E-02	    4.334124E-03	    4.488170E-02	   -1.000000E+00	    1.714363E-03	    1.600000E-03	    8.010000E+02	    6.353517E-04	    7.311563E-03	    6.065706E+00	    7.067180E+05	
    1.198288E-02	    3.275019E-03	    3.432046E-02	   -1.000000E+00	    1.684349E-03	    1.600000E-03	    8.010000E+02	    4.686040E-04	    6.971573E-03	    7.477056E+00	    7.475872E+05	
    1.182946E-02	    2.415142E-03	    2.561286E-02	   -1.000000E+00	    1.660324E-03	    1.600000E-03	    8.010000E+02	    3.351343E-04	    6.561343E-03	    9.260653E+00	    7.843728E+05	
    1.166318E-02	    1.739772E-03	    1.867080E-02	   -1.000000E+00	    1.641788E-03	    1.600000E-03	    8.010000E+02	    2.321546E-04	    6.070725E-03	    1.144403E+01	    8.165100E+05	
    1.150830E-02	    1.225165E-03	    1.330583E-02	   -1.000000E+00	    1.628007E-03	    1.600000E-03	    8.010000E+02	    1.555966E-04	    5.501200E-03	    1.402134E+01	    8.450563E+05	
    1.137727E-02	    8.441010E-04	    9.276925E-03	   -1.000000E+00	    1.618145E-03	    1.600000E-03	    8.010000E+02	    1.008057E-04	    4.865839E-03	    1.693189E+01	    8.711584E+05	
    1.127395E-02	    5.695781E-04	    6.327435E-03	   -1.000000E+00	    1.611354E-03	    1.600000E-03	    8.010000E+02	    6.307846E-05	    4.185289E-03	    2.001912E+01	    8.938309E+05	
    1.119688E-02	    3.770024E-04	    4.212095E-03	   -1.000000E+00	    1.606852E-03	    1.600000E-03	    8.010000E+02	    3.806818E-05	    3.479938E-03	    2.293274E+01	    9.065113E+05	
    1.114196E-02	    2.453116E-04	    2.715915E-03	   -1.000000E+00	    1.603973E-03	    1.600000E-03	    8.010000E+02	    2.207254E-05	    2.763433E-03	    2.494139E+01	    8.916392E+05	
    1.110427E-02	    1.573741E-04	    1.668177E-03	   -1.000000E+00	    1.602209E-03	    1.600000E-03	    8.010000E+02	    1.227227E-05	    2.075840E-03	    2.531266E+01	    8.182002E+05	
    1.107918E-02	    9.989474E-05	    9.333612E-04	   -1.000000E+00	    1.601281E-03	    1.600000E-03	    8.010000E+02	    7.117808E-06	    1.733154E-03	    3.042308E+01	    6.360959E+05	
    1.106289E-02	    6.300094E-05	    3.889482E-04	   -1.000000E+00	    1.601162E-03	    1.600000E-03	    8.010000E+02	    6.457936E-06	    3.587037E-03	    1.436326E+02	    2.766023E+05	
    1.105711E-02	    4.998153E-05	    0.000000E+00	    0.000000E+00	    1.000000E-03	    1.000000E-03	    1.000000E+03	    0.000000E+00	    0.000000E+00	    0.000000E+00	    0.000000E+00	
   -1.105610E-02	    5.041876E-05	    0.000000E+00	    0.000000E+00	    1.000000E-03	    1.000000E-03	    1.000000E+03	    0.000000E+00	    0.000000E+00	    0.000000E+00	    0.000000E+00	
   -1.106162E-02	    6.355055E-05	    9.468911E-04	   -1.000000E+00	    1.627544E-03	    1.600000E-03	    8.010000E+02	    1.530213E-04	    3.566541E-03	    5.992633E+00	    1.626995E+05	
   -1.107716E-02	    1.007594E-04	    2.281565E-03	   -1.000000E+00	    1.601312E-03	    1.600000E-03	    8.010000E+02	    7.286701E-06	    1.553721E-03	    2.388306E+01	    3.762946E+05	
   -1.110107E-02	    1.587196E-04	    4.076164E-03	   -1.000000E+00	    1.602132E-03	    1.600000E-03	    8.010000E+02	    1.184621E-05	    1.739335E-03	    1.841035E+01	    4.832401E+05	
   -1.113697E-02	    2.473692E-04	    6.631173E-03	   -1.000000E+00	    1.603839E-03	    1.600000E-03	    8.010000E+02	    2.132972E-05	    2.203125E-03	    1.640470E+01	    5.256175E+05	
   -1.118917E-02	    3.800731E-04	    1.027109E-02	   -1.000000E+00	    1.606752E-03	    1.600000E-03	    8.010000E+02	    3.751383E-05	    2.647300E-03	    1.346759E+01	    5.327105E+05	
   -1.126222E-02	    5.740155E-04	    1.539768E-02	   -1.000000E+00	    1.611701E-03	    1.600000E-03	    8.010000E+02	    6.500509E-05	    3.062398E-03	    1.040042E+01	    5.222417E+05	
   -1.135974E-02	    8.502511E-04	    2.250208E-02	   -1.000000E+00	    1.620332E-03	    1.600000E-03	    8.010000E+02	    1.129582E-04	    3.488975E-03	    7.768780E+00	    5.031904E+05	
   -1.148259E-02	    1.233234E-03	    3.210940E-02	   -1.000000E+00	    1.635938E-03	    1.600000E-03	    8.010000E+02	    1.996532E-04	    3.985058E-03	    5.734138E+00	    4.767126E+05	
   -1.162621E-02	    1.749588E-03	    4.469067E-02	   -1.000000E+00	    1.664817E-03	    1.600000E-03	    8.010000E+02	    3.600963E-04	    4.615452E-03	    4.264664E+00	    4.404007E+05	
   -1.177747E-02	    2.425784E-03	    6.053081E-02	   -1.000000E+00	    1.717271E-03	    1.600000E-03	    8.010000E+02	    6.515080E-04	    5.423606E-03	    3.254855E+00	    3.937873E+05	
   -1.191158E-02	    3.284311E-03	    7.959135E-02	   -1.000000E+00	    1.805545E-03	    1.600000E-03	    8.010000E+02	    1.141917E-03	    6.394702E-03	    2.581552E+00	    3.406235E+05	
   -1.199041E-02	    4.338074E-03	    1.014623E-01	   -1.000000E+00	    1.938058E-03	    1.600000E-03	    8.010000E+02	    1.878099E-03	    7.457123E-03	    2.134514E+00	    2.867652E+05	
   -1.196385E-02	    5.583343E-03	    1.254148E-01	   -1.000000E+00	    2.115004E-03	    1.600000E-03	    8.010000E+02	    2.861134E-03	    8.523369E-03	    1.830457E+00	    2.373196E+05	
   -1.177588E-02	    6.992899E-03	    1.504870E-01	   -1.000000E+00	    2.328656E-03	    1.600000E-03	    8.010000E+02	    4.048086E-03	    9.521543E-03	    1.614507E+00	    1.952169E+05	
   -1.137584E-02	    8.512483E-03	    1.755683E-01	   -1.000000E+00	    2.565711E-03	    1.600000E-03	    8.010000E+02	    5.365060E-03	    1.040252E-02	    1.454044E+00	    1.613083E+05	
   -1.073249E-02	    1.006420E-02	    1.995069E-01	   -1.000000E+00	    2.809726E-03	    1.600000E-03	    8.010000E+02	    6.720701E-03	    1.113883E-02	    1.330883E+00	    1.351088E+05	
   -9.845742E-03	    1.155843E-02	    2.212547E-01	   -1.000000E+00	    3.043869E-03	    1.600000E-03	    8.010000E+02	    8.021496E-03	    1.172319E-02	    1.235127E+00	    1.155027E+05	
   -8.750029E-03	    1.291145E-02	    2.400209E-01	   -1.000000E+00	    3.253901E-03	    1.600000E-03	    8.010000E+02	    9.188341E-03	    1.216518E-02	    1.161114E+00	    1.012086E+05	
   -7.507036E-03	    1.406202E-02	    2.553783E-01	   -1.000000E+00	    3.430454E-03	    1.600000E-03	    8.010000E+02	    1.016919E-02	    1.248531E-02	    1.105065E+00	    9.102950E+04	
   -6.190882E-03	    1.498035E-02	    2.672797E-01	   -1.000000E+00	    3.569777E-03	    1.600000E-03	    8.010000E+02	    1.094320E-02	    1.270828E-02	    1.063909E+00	    8.395448E+04	
   -4.872429E-03	    1.566719E-02	    2.759884E-01	   -1.000000E+00	    3.672961E-03	    1.600000E-03	    8.010000E+02	    1.151645E-02	    1.285773E-02	    1.034868E+00	    7.917816E+04	
   -3.608315E-03	    1.614574E-02	    2.819609E-01	   -1.000000E+00	    3.744299E-03	    1.600000E-03	    8.010000E+02	    1.191277E-02	    1.295350E-02	    1.015398E+00	    7.608007E+04	
   -2.436649E-03	    1.645120E-02	    2.857298E-01	   -1.000000E+00	    3.789577E-03	    1.600000E-03	    8.010000E+02	    1.216432E-02	    1.301098E-02	    1.003246E+00	    7.419145E+04	
   -1.378010E-03	    1.662187E-02	    2.878149E-01	   -1.000000E+00	    3.814766E-03	    1.600000E-03	    8.010000E+02	    1.230425E-02	    1.304161E-02	    9.965104E-01	    7.316226E+04	
   -4.392318E-04	    1.669323E-02	    2.886720E-01	   -1.000000E+00	    3.825229E-03	    1.600000E-03	    8.010000E+02	    1.236238E-02	    1.305367E-02	    9.936608E-01	    7.273333E+04	
    4.392318E-04	    1.669323E-02	    2.886720E-01	   -1.000000E+00	    3.825229E-03	    1.600000E-03	    8.010000E+02	    1.236238E-02	    1.305367E-02	    9.936608E-01	    7.273333E+04	
    1.378010E-03	    1.662187E-02	    2.878149E-01	   -1.000000E+00	    3.814766E-03	    1.600000E-03	    8.010000E+02	    1.230425E-02	    1.304161E-02	    9.965104E-01	    7.316226E+04	
    2.436649E-03	    1.645120E-02	    2.857298E-01	   -1.000000E+00	    3.789577E-03	    1.600000E-03	    8.010000E+02	    1.216432E-02	    1.301098E-02	    1.003246E+00	    7.419145E+04	
    3.608315E-03	    1.614574E-02	    2.819609E-01	   -1.000000E+00	    3.744299E-03	    1.600000E-03	    8.010000E+02	    1.191277E-02	    1.295350E-02	    1.015398E+00	    7.608007E+04	
    4.872429E-03	    1.566719E-02	    2.759884E-01	   -1.000000E+00	    3.672961E-03	    1.600000E-03	    8.010000E+02	    1.151645E-02	    1.285773E-02	    1.034868E+00	    7.917816E+04	
    6.190882E-03	    1.498035E-02	    2.672797E-01	   -1.000000E+00	    3.569777E-03	    1.600000E-03	    8.010000E+02	    1.094320E-02	    1.270828E-02	    1.063909E+00	    8.395448E+04	
    7.507036E-03	    1.406202E-02	    2.553783E-01	   -1.000000E+00	    3.430454E-03	    1.600000E-03	    8.010000E+02	    1.016919E-02	    1.248531E-02	    1.105065E+00	    9.102950E+04	
    8.750029E-03	    1.291145E-02	    2.400209E-01	   -1.000000E+00	    3.253901E-03	    1.600000E-03	    8.010000E+02	    9.188341E-03	    1.216518E-02	    1.161114E+00	    1.012086E+05	
    9.845742E-03	    1.155843E-02	    2.212547E-01	   -1.000000E+00	    3.043869E-03	    1.600000E-03	    8.010000E+02	    8.021496E-03	    1.172319E-02	    1.235127E+00	    1.155027E+05	
    1.073249E-02	    1.006420E-02	    1.995069E-01	   -1.000000E+00	    2.809726E-03	    1.600000E-03	    8.010000E+02	    6.720701E-03	    1.113883E-02	    1.330883E+00	    1.351088E+05	
    1.137584E-02	    8.512483E-03	    1.755683E-01	   -1.000000E+00	    2.565711E-03	    1.600000E-03	    8.010000E+02	    5.365060E-03	    1.040252E-02	    1.454044E+00	    1.613083E+05	
    1.177588E-02	    6.992899E-03	    1.504870E-01	   -1.000000E+00	    2.328656E-03	    1.600000E-03	    8.010000E+02	    4.048086E-03	    9.521543E-03	    1.614507E+00	    1.952169E+05	
    1.196385E-02	    5.583343E-03	    1.254148E-01	   -1.000000E+00	    2.115004E-03	    1.600000E-03	    8.010000E+02	    2.861134E-03	    8.523369E-03	    1.830457E+00	    2.373196E+05	
    1.199041E-02	    4.338074E-03	    1.014623E-01	   -1.000000E+00	    1.938058E-03	    1.600000E-03	    8.010000E+02	    1.878099E-03	    7.457123E-03	    2.134514E+00	    2.867652E+05	
    1.191158E-02	    3.284311E-03	    7.959135E-02	   -1.000000E+00	    1.805545E-03	    1.600000E-03	    8.010000E+02	    1.141917E-03	    6.394702E-03	    2.581552E+00	    3.406235E+05	
    1.177747E-02	    2.425784E-03	    6.053081E-02	   -1.000000E+00	    1.717271E-03	    1.600000E-03	    8.010000E+02	    6.515080E-04	    5.423606E-03	    3.254855E+00	    3.937873E+05	
    1.162621E-02	    1.749588E-03	    4.469067E-02	   -1.000000E+00	    1.664817E-03	    1.600000E-03	    8.010000E+02	    3.600963E-04	    4.615452E-03	    4.264664E+00	    4.404007E+05	
    1.148259E-02	    1.233234E-03	    3.210940E-02	   -1.000000E+00	    1.635938E-03	    1.600000E-03	    8.010000E+02	    1.996532E-04	    3.985058E-03	    5.734138E+00	    4.767126E+05	
    1.135974E-02	    8.502511E-04	    2.250208E-02	   -1.000000E+00	    1.620332E-03	    1.600000E-03	    8.010000E+02	    1.129582E-04	    3.488975E-03	    7.768780E+00	    5.031904E+05	
    1.126222E-02	    5.740155E-04	    1.539768E-02	   -1.000000E+00	    1.611701E-03	    1.600000E-03	    8.010000E+02	    6.500509E-05	    3.062398E-03	    1.040042E+01	    5.222417E+05	
    1.118917E-02	    3.800731E-04	    1.027109E-02	   -1.000000E+00	    1.606752E-03	    1.600000E-03	    8.010000E+02	    3.751383E-05	    2.647300E-03	    1.346759E+01	    5.327105E+05	
    1.113697E-02	    2.473692E-04	    6.631173E-03	   -1.000000E+00	    1.603839E-03	    1.600000E-03	    8.010000E+02	    2.132972E-05	    2.203125E-03	    1.640470E+01	    5.256175E+05	
    1.110107E-02	    1.587196E-04	    4.076164E-03	   -1.000000E+00	    1.602132E-03	    1.600000E-03	    8.010000E+02	    1.184621E-05	    1.739335E-03	    1.841035E+01	    4.832401E+05	
    1.107716E-02	    1.007594E-04	    2.281565E-03	   -1.000000E+00	    1.601312E-03	    1.600000E-03	    8.010000E+02	    7.286701E-06	    1.553721E-03	    2.388306E+01	    3.762946E+05	
    1.106162E-02	    6.355055E-05	    9.468911E-04	   -1.000000E+00	    1.627544E-03	    1.600000E-03	    8.010000E+02	    1.530213E-04	    3.566541E-03	    5.992633E+00	    1.626995E+05	
    1.105610E-02	    5.041876E-05	    0.000000E+00	    0.000000E+00	    1.000000E-03	    1.000000E-03	    1.000000E+03	    0.000000E+00	    0.000000E+00	    0.000000E+00	    0.000000E+00	
   -1.105476E-02	    5.096040E-05	    0.000000E+00	    0.000000E+00	    1.000000E-03	    1.000000E-03	    1.000000E+03	    0.000000E+00	    0.000000E+00	    0.000000E+00	    0.000000E+00	
   -1.105994E-02	    6.423125E-05	    1.670077E-03	   -1.000000E+00	    1.627489E-03	    1.600000E-03	    8.010000E+02	    1.527158E-04	    3.553287E-03	    5.960072E+00	    1.662480E+05	