Title="Fields"
Variables="X""Y""Velocity""Phi""Effective Viscosity""Dynamic Viscosity""Density""Eddy Viscosity""K""Epsilon""S"
Zone I=52 J=52 F=POINT
   -1.214864E-02	    6.022430E-05	    0.000000E+00	    0.000000E+00	    1.000000E-03	    1.000000E-03	    1.000000E+03	    0.000000E+00	    0.000000E+00	    0.000000E+00	    0.000000E+00	
   -1.214840E-02	    7.587059E-05	    0.000000E+00	    0.000000E+00	    1.000000E-03	    1.000000E-03	    1.000000E+03	    0.000000E+00	    0.000000E+00	    0.000000E+00	    0.000000E+00	
   -1.214760E-02	    1.201162E-04	    0.000000E+00	    0.000000E+00	    1.000000E-03	    1.000000E-03	    1.000000E+03	    0.000000E+00	    0.000000E+00	    0.000000E+00	    0.000000E+00	
   -1.214604E-02	    1.887791E-04	    0.000000E+00	    0.000000E+00	    1.000000E-03	    1.000000E-03	    1.000000E+03	    0.000000E+00	    0.000000E+00	    0.000000E+00	    0.000000E+00	
   -1.214292E-02	    2.931943E-04	    0.000000E+00	    0.000000E+00	    1.000000E-03	    1.000000E-03	    1.000000E+03	    0.000000E+00	    0.000000E+00	    0.000000E+00	    0.000000E+00	
   -1.213664E-02	    4.481479E-04	    0.000000E+00	    0.000000E+00	    1.000000E-03	    1.000000E-03	    1.000000E+03	    0.000000E+00	    0.000000E+00	    0.000000E+00	    0.000000E+00	
   -1.212408E-02	    6.717413E-04	    0.000000E+00	    0.000000E+00	    1.000000E-03	    1.000000E-03	    1.000000E+03	    0.000000E+00	    0.000000E+00	    0.000000E+00	    0.000000E+00	
   -1.209956E-02	    9.844691E-04	    0.000000E+00	    0.000000E+00	    1.000000E-03	    1.000000E-03	    1.000000E+03	    0.000000E+00	    0.000000E+00	    0.000000E+00	    0.000000E+00	
   -1.205344E-02	    1.407248E-03	    0.000000E+00	    0.000000E+00	    1.000000E-03	    1.000000E-03	    1.000000E+03	    0.000000E+00	    0.000000E+00	    0.000000E+00	    0.000000E+00	
   -1.197068E-02	    1.958259E-03	    0.000000E+00	    0.000000E+00	    1.000000E-03	    1.000000E-03	    1.000000E+03	    0.000000E+00	    0.000000E+00	    0.000000E+00	    0.000000E+00	
   -1.182998E-02	    2.648730E-03	    0.000000E+00	    0.000000E+00	    1.000000E-03	    1.000000E-03	    1.000000E+03	    0.000000E+00	    0.000000E+00	    0.000000E+00	    0.000000E+00	
   -1.160451E-02	    3.478208E-03	    0.000000E+00	    0.000000E+00	    1.000000E-03	    1.000000E-03	    1.000000E+03	    0.000000E+00	    0.000000E+00	    0.000000E+00	    0.000000E+00	
   -1.126508E-02	    4.430482E-03	    0.000000E+00	    0.000000E+00	    1.000000E-03	    1.000000E-03	    1.000000E+03	    0.000000E+00	    0.000000E+00	    0.000000E+00	    0.000000E+00	
   -1.078595E-02	    5.471869E-03	    0.000000E+00	    0.000000E+00	    1.000000E-03	    1.000000E-03	    1.000000E+03	    0.000000E+00	    0.000000E+00	    0.000000E+00	    0.000000E+00	
   -1.015216E-02	    6.553542E-03	    0.000000E+00	    0.000000E+00	    1.000000E-03	    1.000000E-03	    1.000000E+03	    0.000000E+00	    0.000000E+00	    0.000000E+00	    0.000000E+00	
   -9.365676E-03	    7.618437E-03	    0.000000E+00	    0.000000E+00	    1.000000E-03	    1.000000E-03	    1.000000E+03	    0.000000E+00	    0.000000E+00	    0.000000E+00	    0.000000E+00	
   -8.447592E-03	    8.611236E-03	    0.000000E+00	    0.000000E+00	    1.000000E-03	    1.000000E-03	    1.000000E+03	    0.000000E+00	    0.000000E+00	    0.000000E+00	    0.000000E+00	
   -7.434908E-03	    9.488112E-03	    0.000000E+00	    0.000000E+00	    1.000000E-03	    1.000000E-03	    1.000000E+03	    0.000000E+00	    0.000000E+00	    0.000000E+00	    0.000000E+00	
   -6.373132E-03	    1.022286E-02	    0.000000E+00	    0.000000E+00	    1.000000E-03	    1.000000E-03	    1.000000E+03	    0.000000E+00	    0.000000E+00	    0.000000E+00	    0.000000E+00	
   -5.307702E-03	    1.080785E-02	    0.000000E+00	    0.000000E+00	    1.000000E-03	    1.000000E-03	    1.000000E+03	    0.000000E+00	    0.000000E+00	    0.000000E+00	    0.000000E+00	
   -4.277189E-03	    1.125075E-02	    0.000000E+00	    0.000000E+00	    1.000000E-03	    1.000000E-03	    1.000000E+03	    0.000000E+00	    0.000000E+00	    0.000000E+00	    0.000000E+00	
   -3.309761E-03	    1.156901E-02	    0.000000E+00	    0.000000E+00	    1.000000E-03	    1.000000E-03	    1.000000E+03	    0.000000E+00	    0.000000E+00	    0.000000E+00	    0.000000E+00	
   -2.422724E-03	    1.178450E-02	    0.000000E+00	    0.000000E+00	    1.000000E-03	    1.000000E-03	    1.000000E+03	    0.000000E+00	    0.000000E+00	    0.000000E+00	    0.000000E+00	
   -1.624046E-03	    1.191947E-02	    0.000000E+00	    0.000000E+00	    1.000000E-03	    1.000000E-03	    1.000000E+03	    0.000000E+00	    0.000000E+00	    0.000000E+00	    0.000000E+00	
   -9.147101E-04	    1.199402E-02	    0.000000E+00	    0.000000E+00	    1.000000E-03	    1.000000E-03	    1.000000E+03	    0.000000E+00	    0.000000E+00	    0.000000E+00	    0.000000E+00	
   -2.910617E-04	    1.202501E-02	    0.000000E+00	    0.000000E+00	    1.000000E-03	    1.000000E-03	    1.000000E+03	    0.000000E+00	    0.000000E+00	    0.000000E+00	    0.000000E+00	
    2.910617E-04	    1.202501E-02	    0.000000E+00	    0.000000E+00	    1.000000E-03	    1.000000E-03	    1.000000E+03	    0.000000E+00	    0.000000E+00	    0.000000E+00	    0.000000E+00	
    9.147101E-04	    1.199402E-02	    0.000000E+00	    0.000000E+00	    1.000000E-03	    1.000000E-03	    1.000000E+03	    0.000000E+00	    0.000000E+00	    0.000000E+00	    0.000000E+00	
    1.624046E-03	    1.191947E-02	    0.000000E+00	    0.000000E+00	    1.000000E-03	    1.000000E-03	    1.000000E+03	    0.000000E+00	    0.000000E+00	    0.000000E+00	    0.000000E+00	
    2.422724E-03	    1.178450E-02	    0.000000E+00	    0.000000E+00	    1.000000E-03	    1.000000E-03	    1.000000E+03	    0.000000E+00	    0.000000E+00	    0.000000E+00	    0.000000E+00	
    3.309761E-03	    1.156901E-02	    0.000000E+00	    0.000000E+00	    1.000000E-03	    1.000000E-03	    1.000000E+03	    0.000000E+00	    0.000000E+00	    0.000000E+00	    0.000000E+00	
    4.277189E-03	    1.125075E-02	    0.000000E+00	    0.000000E+00	    1.000000E-03	    1.000000E-03	    1.000000E+03	    0.000000E+00	    0.000000E+00	    0.000000E+00	    0.000000E+00	
    5.307702E-03	    1.080785E-02	    0.000000E+00	    0.000000E+00	    1.000000E-03	    1.000000E-03	    1.000000E+03	    0.000000E+00	    0.000000E+00	    0.000000E+00	    0.000000E+00	
    6.373132E-03	    1.022286E-02	    0.000000E+00	    0.000000E+00	    1.000000E-03	    1.000000E-03	    1.000000E+03	    0.000000E+00	    0.000000E+00	    0.000000E+00	    0.000000E+00	
    7.434908E-03	    9.488112E-03	    0.000000E+00	    0.000000E+00	    1.000000E-03	    1.000000E-03	    1.000000E+03	    0.000000E+00	    0.000000E+00	    0.000000E+00	    0.000000E+00	
    8.447592E-03	    8.611236E-03	    0.000000E+00	    0.000000E+00	    1.000000E-03	    1.000000E-03	    1.000000E+03	    0.000000E+00	    0.000000E+00	    0.000000E+00	    0.000000E+00	
    9.365676E-03	    7.618437E-03	    0.000000E+00	    0.000000E+00	    1.000000E-03	    1.000000E-03	    1.000000E+03	    0.000000E+00	    0.000000E+00	    0.000000E+00	    0.000000E+00	
    1.015216E-02	    6.553542E-03	    0.000000E+00	    0.000000E+00	    1.000000E-03	    1.000000E-03	    1.000000E+03	    0.000000E+00	    0.000000E+00	    0.000000E+00	    0.000000E+00	
    1.078595E-02	    5.471869E-03	    0.000000E+00	    0.000000E+00	    1.000000E-03	    1.000000E-03	    1.000000E+03	    0.000000E+00	    0.000000E+00	    0.000000E+00	    0.000000E+00	
    1.126508E-02	    4.430482E-03	    0.000000E+00	    0.000000E+00	    1.000000E-03	    1.000000E-03	    1.000000E+03	    0.000000E+00	    0.000000E+00	    0.000000E+00	    0.000000E+00	
    1.160451E-02	    3.478208E-03	    0.000000E+00	    0.000000E+00	    1.000000E-03	    1.000000E-03	    1.000000E+03	    0.000000E+00	    0.000000E+00	    0.000000E+00	    0.000000E+00	
    1.182998E-02	    2.648730E-03	    0.000000E+00	    0.000000E+00	    1.000000E-03	    1.000000E-03	    1.000000E+03	    0.000000E+00	    0.000000E+00	    0.000000E+00	    0.000000E+00	
    1.197068E-02	    1.958259E-03	    0.000000E+00	    0.000000E+00	    1.000000E-03	    1.000000E-03	    1.000000E+03	    0.000000E+00	    0.000000E+00	    0.000000E+00	    0.000000E+00	
    1.205344E-02	    1.407248E-03	    0.000000E+00	    0.000000E+00	    1.000000E-03	    1.000000E-03	    1.000000E+03	    0.000000E+00	    0.000000E+00	    0.000000E+00	    0.000000E+00	
    1.209956E-02	    9.844691E-04	    0.000000E+00	    0.000000E+00	    1.000000E-03	    1.000000E-03	    1.000000E+03	    0.000000E+00	    0.000000E+00	    0.000000E+00	    0.000000E+00	
    1.212408E-02	    6.717413E-04	    0.000000E+00	    0.000000E+00	    1.000000E-03	    1.000000E-03	    1.000000E+03	    0.000000E+00	    0.000000E+00	    0.000000E+00	    0.000000E+00	
    1.213664E-02	    4.481479E-04	    0.000000E+00	    0.000000E+00	    1.000000E-03	    1.000000E-03	    1.000000E+03	    0.000000E+00	    0.000000E+00	    0.000000E+00	    0.000000E+00	
    1.214292E-02	    2.931943E-04	    0.000000E+00	    0.000000E+00	    1.000000E-03	    1.000000E-03	    1.000000E+03	    0.000000E+00	    0.000000E+00	    0.000000E+00	    0.000000E+00	
    1.214604E-02	    1.887791E-04	    0.000000E+00	    0.000000E+00	    1.000000E-03	    1.000000E-03	    1.000000E+03	    0.000000E+00	    0.000000E+00	    0.000000E+00	    0.000000E+00	
    1.214760E-02	    1.201162E-04	    0.000000E+00	    0.000000E+00	    1.000000E-03	    1.000000E-03	    1.000000E+03	    0.000000E+00	    0.000000E+00	    0.000000E+00	    0.000000E+00	
    1.214840E-02	    7.587059E-05	    0.000000E+00	    0.000000E+00	    1.000000E-03	    1.000000E-03	    1.000000E+03	    0.000000E+00	    0.000000E+00	    0.000000E+00	    0.000000E+00	
    1.214864E-02	    6.022430E-05	    0.000000E+00	    0.000000E+00	    1.000000E-03	    1.000000E-03	    1.000000E+03	    0.000000E+00	    0.000000E+00	    0.000000E+00	    0.000000E+00	
   -1.214823E-02	    6.021683E-05	    0.000000E+00	    0.000000E+00	    1.000000E-03	    1.000000E-03	    1.000000E+03	    0.000000E+00	    0.000000E+00	    0.000000E+00	    0.000000E+00	
   -1.214788E-02	    7.586052E-05	    2.025156E-04	   -1.000000E+00	    1.001029E-03	    1.000000E-03	    1.000000E+03	    4.677282E-06	    1.648308E-03	    5.227883E+01	    1.537331E+05	
   -1.214679E-02	    1.200973E-04	    6.255582E-04	   -1.000000E+00	    1.001176E-03	    1.000000E-03	    1.000000E+03	    5.343890E-06	    8.584622E-04	    1.241159E+01	    5.923726E+05	
   -1.214476E-02	    1.887422E-04	    1.198020E-03	   -1.000000E+00	    1.002192E-03	    1.000000E-03	    1.000000E+03	    9.963380E-06	    1.208178E-03	    1.318554E+01	    8.786154E+05	
   -1.214094E-02	    2.931200E-04	    2.002347E-03	   -1.000000E+00	    1.003966E-03	    1.000000E-03	    1.000000E+03	    1.802842E-05	    1.640042E-03	    1.342749E+01	    1.015498E+06	
   -1.213361E-02	    4.479957E-04	    3.135186E-03	   -1.000000E+00	    1.006792E-03	    1.000000E-03	    1.000000E+03	    3.087396E-05	    2.058875E-03	    1.235692E+01	    1.062019E+06	
   -1.211955E-02	    6.714295E-04	    4.721879E-03	   -1.000000E+00	    1.011136E-03	    1.000000E-03	    1.000000E+03	    5.061789E-05	    2.463464E-03	    1.079023E+01	    1.066136E+06	
   -1.209293E-02	    9.838410E-04	    6.902428E-03	   -1.000000E+00	    1.017548E-03	    1.000000E-03	    1.000000E+03	    7.976344E-05	    2.848534E-03	    9.155486E+00	    1.050578E+06	
   -1.204401E-02	    1.406019E-03	    9.814055E-03	   -1.000000E+00	    1.026602E-03	    1.000000E-03	    1.000000E+03	    1.209182E-04	    3.204516E-03	    7.643205E+00	    1.022846E+06	
   -1.195765E-02	    1.955950E-03	    1.356920E-02	   -1.000000E+00	    1.038813E-03	    1.000000E-03	    1.000000E+03	    1.764215E-04	    3.523838E-03	    6.334654E+00	    9.841134E+05	
   -1.181256E-02	    2.644593E-03	    1.822954E-02	   -1.000000E+00	    1.054540E-03	    1.000000E-03	    1.000000E+03	    2.479099E-04	    3.804801E-03	    5.255482E+00	    9.351679E+05	
   -1.158209E-02	    3.471175E-03	    2.377807E-02	   -1.000000E+00	    1.073880E-03	    1.000000E-03	    1.000000E+03	    3.358188E-04	    4.050592E-03	    4.397183E+00	    8.793560E+05	
   -1.123737E-02	    4.419185E-03	    3.009558E-02	   -1.000000E+00	    1.096534E-03	    1.000000E-03	    1.000000E+03	    4.387923E-04	    4.264474E-03	    3.730048E+00	    8.218434E+05	
   -1.075321E-02	    5.454763E-03	    3.695275E-02	   -1.000000E+00	    1.121724E-03	    1.000000E-03	    1.000000E+03	    5.532901E-04	    4.447694E-03	    3.217802E+00	    7.674225E+05	
   -1.011527E-02	    6.529136E-03	    4.402695E-02	   -1.000000E+00	    1.148226E-03	    1.000000E-03	    1.000000E+03	    6.737545E-04	    4.600576E-03	    2.827257E+00	    7.192313E+05	
   -9.326135E-03	    7.585587E-03	    5.094768E-02	   -1.000000E+00	    1.174557E-03	    1.000000E-03	    1.000000E+03	    7.934428E-04	    4.724076E-03	    2.531399E+00	    6.786717E+05	
   -8.407302E-03	    8.569391E-03	    5.736168E-02	   -1.000000E+00	    1.199254E-03	    1.000000E-03	    1.000000E+03	    9.056986E-04	    4.820505E-03	    2.309106E+00	    6.458745E+05	
   -7.395856E-03	    9.437422E-03	    6.299540E-02	   -1.000000E+00	    1.221143E-03	    1.000000E-03	    1.000000E+03	    1.005197E-03	    4.893389E-03	    2.143931E+00	    6.202226E+05	
   -6.337080E-03	    1.016411E-02	    6.769223E-02	   -1.000000E+00	    1.239518E-03	    1.000000E-03	    1.000000E+03	    1.088718E-03	    4.946861E-03	    2.022957E+00	    6.007479E+05	
   -5.275969E-03	    1.074227E-02	    7.141542E-02	   -1.000000E+00	    1.254158E-03	    1.000000E-03	    1.000000E+03	    1.155263E-03	    4.985020E-03	    1.935956E+00	    5.863838E+05	
   -4.250575E-03	    1.117974E-02	    7.422381E-02	   -1.000000E+00	    1.265242E-03	    1.000000E-03	    1.000000E+03	    1.205648E-03	    5.011504E-03	    1.874815E+00	    5.761074E+05	
   -3.288589E-03	    1.149396E-02	    7.623567E-02	   -1.000000E+00	    1.273205E-03	    1.000000E-03	    1.000000E+03	    1.241842E-03	    5.029301E-03	    1.833122E+00	    5.690104E+05	
   -2.406939E-03	    1.170666E-02	    7.759436E-02	   -1.000000E+00	    1.278594E-03	    1.000000E-03	    1.000000E+03	    1.266338E-03	    5.040752E-03	    1.805858E+00	    5.643262E+05	
   -1.613344E-03	    1.183985E-02	    7.844310E-02	   -1.000000E+00	    1.281967E-03	    1.000000E-03	    1.000000E+03	    1.281667E-03	    5.047635E-03	    1.789135E+00	    5.614305E+05	
   -9.086451E-04	    1.191341E-02	    7.891010E-02	   -1.000000E+00	    1.283827E-03	    1.000000E-03	    1.000000E+03	    1.290122E-03	    5.051274E-03	    1.779974E+00	    5.598296E+05	
   -2.891269E-04	    1.194400E-02	    7.910199E-02	   -1.000000E+00	    1.284596E-03	    1.000000E-03	    1.000000E+03	    1.293620E-03	    5.052643E-03	    1.776123E+00	    5.591396E+05	
    2.891269E-04	    1.194400E-02	    7.910199E-02	   -1.000000E+00	    1.284596E-03	    1.000000E-03	    1.000000E+03	    1.293620E-03	    5.052643E-03	    1.776123E+00	    5.591396E+05	
    9.086451E-04	    1.191341E-02	    7.891010E-02	   -1.000000E+00	    1.283827E-03	    1.000000E-03	    1.000000E+03	    1.290122E-03	    5.051274E-03	    1.779974E+00	    5.598296E+05	
    1.613344E-03	    1.183985E-02	    7.844310E-02	   -1.000000E+00	    1.281967E-03	    1.000000E-03	    1.000000E+03	    1.281667E-03	    5.047635E-03	    1.789135E+00	    5.614305E+05	
    2.406939E-03	    1.170666E-02	    7.759436E-02	   -1.000000E+00	    1.278594E-03	    1.000000E-03	    1.000000E+03	    1.266338E-03	    5.040752E-03	    1.805858E+00	    5.643262E+05	
    3.288589E-03	    1.149396E-02	    7.623567E-02	   -1.000000E+00	    1.273205E-03	    1.000000E-03	    1.000000E+03	    1.241842E-03	    5.029301E-03	    1.833122E+00	    5.690104E+05	
    4.250575E-03	    1.117974E-02	    7.422381E-02	   -1.000000E+00	    1.265242E-03	    1.000000E-03	    1.000000E+03	    1.205648E-03	    5.011504E-03	    1.874815E+00	    5.761074E+05	
    5.275969E-03	    1.074227E-02	    7.141542E-02	   -1.000000E+00	    1.254158E-03	    1.000000E-03	    1.000000E+03	    1.155263E-03	    4.985020E-03	    1.935956E+00	    5.863838E+05	
    6.337080E-03	    1.016411E-02	    6.769223E-02	   -1.000000E+00	    1.239518E-03	    1.000000E-03	    1.000000E+03	    1.088718E-03	    4.946861E-03	    2.022957E+00	    6.007479E+05	
    7.395856E-03	    9.437422E-03	    6.299540E-02	   -1.000000E+00	    1.221143E-03	    1.000000E-03	    1.000000E+03	    1.005197E-03	    4.893389E-03	    2.143931E+00	    6.202226E+05	
    8.407302E-03	    8.569391E-03	    5.736168E-02	   -1.000000E+00	    1.199254E-03	    1.000000E-03	    1.000000E+03	    9.056986E-04	    4.820505E-03	    2.309106E+00	    6.458745E+05	
    9.326135E-03	    7.585587E-03	    5.094768E-02	   -1.000000E+00	    1.174557E-03	    1.000000E-03	    1.000000E+03	    7.934428E-04	    4.724076E-03	    2.531399E+00	    6.786717E+05	
    1.011527E-02	    6.529136E-03	    4.402695E-02	   -1.000000E+00	    1.148226E-03	    1.000000E-03	    1.000000E+03	    6.737545E-04	    4.600576E-03	    2.827257E+00	    7.192313E+05	
    1.075321E-02	    5.454763E-03	    3.695275E-02	   -1.000000E+00	    1.121724E-03	    1.000000E-03	    1.000000E+03	    5.532901E-04	    4.447694E-03	    3.217802E+00	    7.674225E+05	
    1.123737E-02	    4.419185E-03	    3.009558E-02	   -1.000000E+00	    1.096534E-03	    1.000000E-03	    1.000000E+03	    4.387923E-04	    4.264474E-03	    3.730048E+00	    8.218434E+05	
    1.158209E-02	    3.471175E-03	    2.377807E-02	   -1.000000E+00	    1.073880E-03	    1.000000E-03	    1.000000E+03	    3.358188E-04	    4.050592E-03	    4.397183E+00	    8.793560E+05	
    1.181256E-02	    2.644593E-03	    1.822954E-02	   -1.000000E+00	    1.054540E-03	    1.000000E-03	    1.000000E+03	    2.479099E-04	    3.804801E-03	    5.255482E+00	    9.351679E+05	
    1.195765E-02	    1.955950E-03	    1.356920E-02	   -1.000000E+00	    1.038813E-03	    1.000000E-03	    1.000000E+03	    1.764215E-04	    3.523838E-03	    6.334654E+00	    9.841134E+05	
    1.204401E-02	    1.406019E-03	    9.814055E-03	   -1.000000E+00	    1.026602E-03	    1.000000E-03	    1.000000E+03	    1.209182E-04	    3.204516E-03	    7.643205E+00	    1.022846E+06	
    1.209293E-02	    9.838410E-04	    6.902428E-03	   -1.000000E+00	    1.017548E-03	    1.000000E-03	    1.000000E+03	    7.976344E-05	    2.848534E-03	    9.155486E+00	    1.050578E+06	
    1.211955E-02	    6.714295E-04	    4.721879E-03	   -1.000000E+00	    1.011136E-03	    1.000000E-03	    1.000000E+03	    5.061789E-05	    2.463464E-03	    1.079023E+01	    1.066136E+06	
    1.213361E-02	    4.479957E-04	    3.135186E-03	   -1.000000E+00	    1.006792E-03	    1.000000E-03	    1.000000E+03	    3.087396E-05	    2.058875E-03	    1.235692E+01	    1.062019E+06	
    1.214094E-02	    2.931200E-04	    2.002347E-03	   -1.000000E+00	    1.003966E-03	    1.000000E-03	    1.000000E+03	    1.802842E-05	    1.640042E-03	    1.342749E+01	    1.015498E+06	
    1.214476E-02	    1.887422E-04	    1.198020E-03	   -1.000000E+00	    1.002192E-03	    1.000000E-03	    1.000000E+03	    9.963380E-06	    1.208178E-03	    1.318554E+01	    8.786154E+05	
    1.214679E-02	    1.200973E-04	    6.255582E-04	   -1.000000E+00	    1.001176E-03	    1.000000E-03	    1.000000E+03	    5.343890E-06	    8.584622E-04	    1.241159E+01	    5.923726E+05	
    1.214788E-02	    7.586052E-05	    2.025156E-04	   -1.000000E+00	    1.001029E-03	    1.000000E-03	    1.000000E+03	    4.677282E-06	    1.648308E-03	    5.227883E+01	    1.537331E+05	
    1.214823E-02	    6.021683E-05	    0.000000E+00	    0.000000E+00	    1.000000E-03	    1.000000E-03	    1.000000E+03	    0.000000E+00	    0.000000E+00	    0.000000E+00	    0.000000E+00	
   -1.214729E-02	    6.018900E-05	    0.000000E+00	    0.000000E+00	    1.000000E-03	    1.000000E-03	    1.000000E+03	    0.000000E+00	    0.000000E+00	    0.000000E+00	    0.000000E+00	
   -1.214670E-02	    7.582392E-05	    6.644329E-04	   -1.000000E+00	    1.031505E-03	    1.000000E-03	    1.000000E+03	    1.432037E-04	    1.661118E-03	    1.734159E+00	    1.502569E+05	
   -1.214491E-02	    1.200325E-04	    2.070917E-03	   -1.000000E+00	    1.001260E-03	    1.000000E-03	    1.000000E+03	    5.725615E-06	    7.822861E-04	    9.619479E+00	    5.917756E+05	
   -1.214181E-02	    1.886237E-04	    3.962937E-03	   -1.000000E+00	    1.002341E-03	    1.000000E-03	    1.000000E+03	    1.063940E-05	    1.051641E-03	    9.355370E+00	    8.760937E+05	
   -1.213636E-02	    2.928967E-04	    6.613886E-03	   -1.000000E+00	    1.004440E-03	    1.000000E-03	    1.000000E+03	    2.018039E-05	    1.387681E-03	    8.588011E+00	    1.009515E+06	
   -1.212662E-02	    4.475651E-04	    1.033017E-02	   -1.000000E+00	    1.008244E-03	    1.000000E-03	    1.000000E+03	    3.747321E-05	    1.715944E-03	    7.071767E+00	    1.049274E+06	
   -1.210908E-02	    6.705914E-04	    1.549394E-02	   -1.000000E+00	    1.015338E-03	    1.000000E-03	    1.000000E+03	    6.971957E-05	    2.067770E-03	    5.519404E+00	    1.039163E+06	
   -1.207763E-02	    9.822180E-04	    2.249201E-02	   -1.000000E+00	    1.028929E-03	    1.000000E-03	    1.000000E+03	    1.314936E-04	    2.484795E-03	    4.225897E+00	    9.944444E+05	
   -1.202224E-02	    1.402938E-03	    3.161037E-02	   -1.000000E+00	    1.054922E-03	    1.000000E-03	    1.000000E+03	    2.496437E-04	    3.005398E-03	    3.256310E+00	    9.166697E+05	
   -1.192760E-02	    1.950285E-03	    4.289995E-02	   -1.000000E+00	    1.101915E-03	    1.000000E-03	    1.000000E+03	    4.632486E-04	    3.642661E-03	    2.577899E+00	    8.117157E+05	
   -1.177247E-02	    2.634602E-03	    5.608968E-02	   -1.000000E+00	    1.177963E-03	    1.000000E-03	    1.000000E+03	    8.089218E-04	    4.366756E-03	    2.121552E+00	    6.941387E+05	
   -1.153055E-02	    3.454397E-03	    7.063336E-02	   -1.000000E+00	    1.285908E-03	    1.000000E-03	    1.000000E+03	    1.299583E-03	    5.120783E-03	    1.815981E+00	    5.798286E+05	
   -1.117378E-02	    4.392487E-03	    8.584249E-02	   -1.000000E+00	    1.422123E-03	    1.000000E-03	    1.000000E+03	    1.918742E-03	    5.850730E-03	    1.605632E+00	    4.794347E+05	
   -1.067819E-02	    5.414629E-03	    1.010029E-01	   -1.000000E+00	    1.578463E-03	    1.000000E-03	    1.000000E+03	    2.629377E-03	    6.518471E-03	    1.454391E+00	    3.971628E+05	
   -1.003092E-02	    6.472204E-03	    1.154525E-01	   -1.000000E+00	    1.744476E-03	    1.000000E-03	    1.000000E+03	    3.383984E-03	    7.101205E-03	    1.341153E+00	    3.327985E+05	
   -9.235913E-03	    7.509312E-03	    1.286406E-01	   -1.000000E+00	    1.909203E-03	    1.000000E-03	    1.000000E+03	    4.132741E-03	    7.588765E-03	    1.254142E+00	    2.840098E+05	
   -8.315535E-03	    8.472593E-03	    1.401741E-01	   -1.000000E+00	    2.062834E-03	    1.000000E-03	    1.000000E+03	    4.831064E-03	    7.981262E-03	    1.186705E+00	    2.478506E+05	
   -7.307050E-03	    9.320514E-03	    1.498437E-01	   -1.000000E+00	    2.198083E-03	    1.000000E-03	    1.000000E+03	    5.445833E-03	    8.286316E-03	    1.134753E+00	    2.215160E+05	
   -6.255204E-03	    1.002892E-02	    1.576196E-01	   -1.000000E+00	    2.310880E-03	    1.000000E-03	    1.000000E+03	    5.958546E-03	    8.515909E-03	    1.095379E+00	    2.026327E+05	
   -5.203978E-03	    1.059161E-02	    1.636188E-01	   -1.000000E+00	    2.400257E-03	    1.000000E-03	    1.000000E+03	    6.364803E-03	    8.683532E-03	    1.066229E+00	    1.893114E+05	
   -4.190247E-03	    1.101682E-02	    1.680556E-01	   -1.000000E+00	    2.467632E-03	    1.000000E-03	    1.000000E+03	    6.671056E-03	    8.802174E-03	    1.045268E+00	    1.800979E+05	
   -3.240621E-03	    1.132195E-02	    1.711900E-01	   -1.000000E+00	    2.515876E-03	    1.000000E-03	    1.000000E+03	    6.890344E-03	    8.883233E-03	    1.030727E+00	    1.738924E+05	
   -2.371191E-03	    1.152836E-02	    1.732866E-01	   -1.000000E+00	    2.548452E-03	    1.000000E-03	    1.000000E+03	    7.038417E-03	    8.936136E-03	    1.021097E+00	    1.698714E+05	
   -1.589115E-03	    1.165755E-02	    1.745880E-01	   -1.000000E+00	    2.568809E-03	    1.000000E-03	    1.000000E+03	    7.130949E-03	    8.968381E-03	    1.015134E+00	    1.674213E+05	
   -8.949153E-04	    1.172889E-02	    1.753009E-01	   -1.000000E+00	    2.580027E-03	    1.000000E-03	    1.000000E+03	    7.181942E-03	    8.985772E-03	    1.011839E+00	    1.660865E+05	
   -2.847470E-04	    1.175854E-02	    1.755926E-01	   -1.000000E+00	    2.584664E-03	    1.000000E-03	    1.000000E+03	    7.203019E-03	    8.992722E-03	    1.010439E+00	    1.655302E+05	
    2.847470E-04	    1.175854E-02	    1.755926E-01	   -1.000000E+00	    2.584664E-03	    1.000000E-03	    1.000000E+03	    7.203019E-03	    8.992722E-03	    1.010439E+00	    1.655302E+05	
    8.949153E-04	    1.172889E-02	    1.753009E-01	   -1.000000E+00	    2.580027E-03	    1.000000E-03	    1.000000E+03	    7.181942E-03	    8.985772E-03	    1.011839E+00	    1.660865E+05	
    1.589115E-03	    1.165755E-02	    1.745880E-01	   -1.000000E+00	    2.568809E-03	    1.000000E-03	    1.000000E+03	    7.130949E-03	    8.968381E-03	    1.015134E+00	    1.674213E+05	
    2.371191E-03	    1.152836E-02	    1.732866E-01	   -1.000000E+00	    2.548452E-03	    1.000000E-03	    1.000000E+03	    7.038417E-03	    8.936136E-03	    1.021097E+00	    1.698714E+05	
    3.240621E-03	    1.132195E-02	    1.711900E-01	   -1.000000E+00	    2.515876E-03	    1.000000E-03	    1.000000E+03	    6.890344E-03	    8.883233E-03	    1.030727E+00	    1.738924E+05	
    4.190247E-03	    1.101682E-02	    1.680556E-01	   -1.000000E+00	    2.467632E-03	    1.000000E-03	    1.000000E+03	    6.671056E-03	    8.802174E-03	    1.045268E+00	    1.800979E+05	
    5.203978E-03	    1.059161E-02	    1.636188E-01	   -1.000000E+00	    2.400257E-03	    1.000000E-03	    1.000000E+03	    6.364803E-03	    8.683532E-03	    1.066229E+00	    1.893114E+05	
    6.255204E-03	    1.002892E-02	    1.576196E-01	   -1.000000E+00	    2.310880E-03	    1.000000E-03	    1.000000E+03	    5.958546E-03	    8.515909E-03	    1.095379E+00	    2.026327E+05	
    7.307050E-03	    9.320514E-03	    1.498437E-01	   -1.000000E+00	    2.198083E-03	    1.000000E-03	    1.000000E+03	    5.445833E-03	    8.286316E-03	    1.134753E+00	    2.215160E+05	
    8.315535E-03	    8.472593E-03	    1.401741E-01	   -1.000000E+00	    2.062834E-03	    1.000000E-03	    1.000000E+03	    4.831064E-03	    7.981262E-03	    1.186705E+00	    2.478506E+05	
    9.235913E-03	    7.509312E-03	    1.286406E-01	   -1.000000E+00	    1.909203E-03	    1.000000E-03	    1.000000E+03	    4.132741E-03	    7.588765E-03	    1.254142E+00	    2.840098E+05	
    1.003092E-02	    6.472204E-03	    1.154525E-01	   -1.000000E+00	    1.744476E-03	    1.000000E-03	    1.000000E+03	    3.383984E-03	    7.101205E-03	    1.341153E+00	    3.327985E+05	
    1.067819E-02	    5.414629E-03	    1.010029E-01	   -1.000000E+00	    1.578463E-03	    1.000000E-03	    1.000000E+03	    2.629377E-03	    6.518471E-03	    1.454391E+00	    3.971628E+05	
    1.117378E-02	    4.392487E-03	    8.584249E-02	   -1.000000E+00	    1.422123E-03	    1.000000E-03	    1.000000E+03	    1.918742E-03	    5.850730E-03	    1.605632E+00	    4.794347E+05	
    1.153055E-02	    3.454397E-03	    7.063336E-02	   -1.000000E+00	    1.285908E-03	    1.000000E-03	    1.000000E+03	    1.299583E-03	    5.120783E-03	    1.815981E+00	    5.798286E+05	
    1.177247E-02	    2.634602E-03	    5.608968E-02	   -1.000000E+00	    1.177963E-03	    1.000000E-03	    1.000000E+03	    8.089218E-04	    4.366756E-03	    2.121552E+00	    6.941387E+05	
    1.192760E-02	    1.950285E-03	    4.289995E-02	   -1.000000E+00	    1.101915E-03	    1.000000E-03	    1.000000E+03	    4.632486E-04	    3.642661E-03	    2.577899E+00	    8.117157E+05	
    1.202224E-02	    1.402938E-03	    3.161037E-02	   -1.000000E+00	    1.054922E-03	    1.000000E-03	    1.000000E+03	    2.496437E-04	    3.005398E-03	    3.256310E+00	    9.166697E+05	
    1.207763E-02	    9.822180E-04	    2.249201E-02	   -1.000000E+00	    1.028929E-03	    1.000000E-03	    1.000000E+03	    1.314936E-04	    2.484795E-03	    4.225897E+00	    9.944444E+05	
    1.210908E-02	    6.705914E-04	    1.549394E-02	   -1.000000E+00	    1.015338E-03	    1.000000E-03	    1.000000E+03	    6.971957E-05	    2.067770E-03	    5.519404E+00	    1.039163E+06	
    1.212662E-02	    4.475651E-04	    1.033017E-02	   -1.000000E+00	    1.008244E-03	    1.000000E-03	    1.000000E+03	    3.747321E-05	    1.715944E-03	    7.071767E+00	    1.049274E+06	
    1.213636E-02	    2.928967E-04	    6.613886E-03	   -1.000000E+00	    1.004440E-03	    1.000000E-03	    1.000000E+03	    2.018039E-05	    1.387681E-03	    8.588011E+00	    1.009515E+06	
    1.214181E-02	    1.886237E-04	    3.962937E-03	   -1.000000E+00	    1.002341E-03	    1.000000E-03	    1.000000E+03	    1.063940E-05	    1.051641E-03	    9.355370E+00	    8.760937E+05	
    1.214491E-02	    1.200325E-04	    2.070917E-03	   -1.000000E+00	    1.001260E-03	    1.000000E-03	    1.000000E+03	    5.725615E-06	    7.822861E-04	    9.619479E+00	    5.917756E+05	
    1.214670E-02	    7.582392E-05	    6.644329E-04	   -1.000000E+00	    1.031505E-03	    1.000000E-03	    1.000000E+03	    1.432037E-04	    1.661118E-03	    1.734159E+00	    1.502569E+05	
    1.214729E-02	    6.018900E-05	    0.000000E+00	    0.000000E+00	    1.000000E-03	    1.000000E-03	    1.000000E+03	    0.000000E+00	    0.000000E+00	    0.000000E+00	    0.000000E+00	
   -1.214606E-02	    6.013027E-05	    0.000000E+00	    0.000000E+00	    1.000000E-03	    1.000000E-03	    1.000000E+03	    0.000000E+00	    0.000000E+00	    0.000000E+00	    0.000000E+00	
   -1.214514E-02	    7.574794E-05	    1.258649E-03	   -1.000000E+00	    1.031690E-03	    1.000000E-03	    1.000000E+03	    1.440442E-04	    1.681058E-03	    1.765682E+00	    1.514279E+05	