Title="Fields"
Variables="X""Y""Velocity""Phi""Effective Viscosity""Dynamic Viscosity""Density"
Zone I=52 J=52 F=POINT
   -1.214864E-02	    6.022430E-05	    0.000000E+00	    0.000000E+00	    1.000000E-03	    1.000000E-03	    1.000000E+03	
   -1.214840E-02	    7.587059E-05	    0.000000E+00	    0.000000E+00	    1.000000E-03	    1.000000E-03	    1.000000E+03	
   -1.214760E-02	    1.201162E-04	    0.000000E+00	    0.000000E+00	    1.000000E-03	    1.000000E-03	    1.000000E+03	
   -1.214604E-02	    1.887791E-04	    0.000000E+00	    0.000000E+00	    1.000000E-03	    1.000000E-03	    1.000000E+03	
   -1.214292E-02	    2.931943E-04	    0.000000E+00	    0.000000E+00	    1.000000E-03	    1.000000E-03	    1.000000E+03	
   -1.213664E-02	    4.481479E-04	    0.000000E+00	    0.000000E+00	    1.000000E-03	    1.000000E-03	    1.000000E+03	
   -1.212408E-02	    6.717413E-04	    0.000000E+00	    0.000000E+00	    1.000000E-03	    1.000000E-03	    1.000000E+03	
   -1.209956E-02	    9.844690E-04	    0.000000E+00	    0.000000E+00	    1.000000E-03	    1.000000E-03	    1.000000E+03	
   -1.205344E-02	    1.407248E-03	    0.000000E+00	    0.000000E+00	    1.000000E-03	    1.000000E-03	    1.000000E+03	
   -1.197068E-02	    1.958259E-03	    0.000000E+00	    0.000000E+00	    1.000000E-03	    1.000000E-03	    1.000000E+03	
   -1.182997E-02	    2.648730E-03	    0.000000E+00	    0.000000E+00	    1.000000E-03	    1.000000E-03	    1.000000E+03	
   -1.160451E-02	    3.478208E-03	    0.000000E+00	    0.000000E+00	    1.000000E-03	    1.000000E-03	    1.000000E+03	
   -1.126508E-02	    4.430481E-03	    0.000000E+00	    0.000000E+00	    1.000000E-03	    1.000000E-03	    1.000000E+03	
   -1.078595E-02	    5.471868E-03	    0.000000E+00	    0.000000E+00	    1.000000E-03	    1.000000E-03	    1.000000E+03	
   -1.015216E-02	    6.553541E-03	    0.000000E+00	    0.000000E+00	    1.000000E-03	    1.000000E-03	    1.000000E+03	
   -9.365674E-03	    7.618435E-03	    0.000000E+00	    0.000000E+00	    1.000000E-03	    1.000000E-03	    1.000000E+03	
   -8.447591E-03	    8.611235E-03	    0.000000E+00	    0.000000E+00	    1.000000E-03	    1.000000E-03	    1.000000E+03	
   -7.434907E-03	    9.488110E-03	    0.000000E+00	    0.000000E+00	    1.000000E-03	    1.000000E-03	    1.000000E+03	
   -6.373131E-03	    1.022285E-02	    0.000000E+00	    0.000000E+00	    1.000000E-03	    1.000000E-03	    1.000000E+03	
   -5.307701E-03	    1.080785E-02	    0.000000E+00	    0.000000E+00	    1.000000E-03	    1.000000E-03	    1.000000E+03	
   -4.277188E-03	    1.125075E-02	    0.000000E+00	    0.000000E+00	    1.000000E-03	    1.000000E-03	    1.000000E+03	
   -3.309760E-03	    1.156901E-02	    0.000000E+00	    0.000000E+00	    1.000000E-03	    1.000000E-03	    1.000000E+03	
   -2.422724E-03	    1.178450E-02	    0.000000E+00	    0.000000E+00	    1.000000E-03	    1.000000E-03	    1.000000E+03	
   -1.624046E-03	    1.191947E-02	    0.000000E+00	    0.000000E+00	    1.000000E-03	    1.000000E-03	    1.000000E+03	
   -9.147099E-04	    1.199402E-02	    0.000000E+00	    0.000000E+00	    1.000000E-03	    1.000000E-03	    1.000000E+03	
   -2.910616E-04	    1.202501E-02	    0.000000E+00	    0.000000E+00	    1.000000E-03	    1.000000E-03	    1.000000E+03	
    2.910616E-04	    1.202501E-02	    0.000000E+00	    0.000000E+00	    1.000000E-03	    1.000000E-03	    1.000000E+03	
    9.147099E-04	    1.199402E-02	    0.000000E+00	    0.000000E+00	    1.000000E-03	    1.000000E-03	    1.000000E+03	
    1.624046E-03	    1.191947E-02	    0.000000E+00	    0.000000E+00	    1.000000E-03	    1.000000E-03	    1.000000E+03	
    2.422724E-03	    1.178450E-02	    0.000000E+00	    0.000000E+00	    1.000000E-03	    1.000000E-03	    1.000000E+03	
    3.309760E-03	    1.156901E-02	    0.000000E+00	    0.000000E+00	    1.000000E-03	    1.000000E-03	    1.000000E+03	
    4.277188E-03	    1.125075E-02	    0.000000E+00	    0.000000E+00	    1.000000E-03	    1.000000E-03	    1.000000E+03	
    5.307701E-03	    1.080785E-02	    0.000000E+00	    0.000000E+00	    1.000000E-03	    1.000000E-03	    1.000000E+03	
    6.373131E-03	    1.022285E-02	    0.000000E+00	    0.000000E+00	    1.000000E-03	    1.000000E-03	    1.000000E+03	
    7.434907E-03	    9.488110E-03	    0.000000E+00	    0.000000E+00	    1.000000E-03	    1.000000E-03	    1.000000E+03	
    8.447591E-03	    8.611235E-03	    0.000000E+00	    0.000000E+00	    1.000000E-03	    1.000000E-03	    1.000000E+03	
    9.365674E-03	    7.618435E-03	    0.000000E+00	    0.000000E+00	    1.000000E-03	    1.000000E-03	    1.000000E+03	
    1.015216E-02	    6.553541E-03	    0.000000E+00	    0.000000E+00	    1.000000E-03	    1.000000E-03	    1.000000E+03	
    1.078595E-02	    5.471868E-03	    0.000000E+00	    0.000000E+00	    1.000000E-03	    1.000000E-03	    1.000000E+03	
    1.126508E-02	    4.430481E-03	    0.000000E+00	    0.000000E+00	    1.000000E-03	    1.000000E-03	    1.000000E+03	
    1.160451E-02	    3.478208E-03	    0.000000E+00	    0.000000E+00	    1.000000E-03	    1.000000E-03	    1.000000E+03	
    1.182997E-02	    2.648730E-03	    0.000000E+00	    0.000000E+00	    1.000000E-03	    1.000000E-03	    1.000000E+03	
    1.197068E-02	    1.958259E-03	    0.000000E+00	    0.000000E+00	    1.000000E-03	    1.000000E-03	    1.000000E+03	
    1.205344E-02	    1.407248E-03	    0.000000E+00	    0.000000E+00	    1.000000E-03	    1.000000E-03	    1.000000E+03	
    1.209956E-02	    9.844690E-04	    0.000000E+00	    0.000000E+00	    1.000000E-03	    1.000000E-03	    1.000000E+03	
    1.212408E-02	    6.717413E-04	    0.000000E+00	    0.000000E+00	    1.000000E-03	    1.000000E-03	    1.000000E+03	
    1.213664E-02	    4.481479E-04	    0.000000E+00	    0.000000E+00	    1.000000E-03	    1.000000E-03	    1.000000E+03	
    1.214292E-02	    2.931943E-04	    0.000000E+00	    0.000000E+00	    1.000000E-03	    1.000000E-03	    1.000000E+03	
    1.214604E-02	    1.887791E-04	    0.000000E+00	    0.000000E+00	    1.000000E-03	    1.000000E-03	    1.000000E+03	
    1.214760E-02	    1.201162E-04	    0.000000E+00	    0.000000E+00	    1.000000E-03	    1.000000E-03	    1.000000E+03	
    1.214840E-02	    7.587059E-05	    0.000000E+00	    0.000000E+00	    1.000000E-03	    1.000000E-03	    1.000000E+03	
    1.214864E-02	    6.022430E-05	    0.000000E+00	    0.000000E+00	    1.000000E-03	    1.000000E-03	    1.000000E+03	
   -1.214823E-02	    6.021683E-05	    0.000000E+00	    0.000000E+00	    1.000000E-03	    1.000000E-03	    1.000000E+03	
   -1.214788E-02	    7.586052E-05	    2.589966E-06	   -1.000000E+00	    1.000000E-03	    1.000000E-03	    1.000000E+03	
   -1.214679E-02	    1.200973E-04	    8.265885E-06	   -1.000000E+00	    1.000000E-03	    1.000000E-03	    1.000000E+03	
   -1.214476E-02	    1.887422E-04	    1.555885E-05	   -1.000000E+00	    1.000000E-03	    1.000000E-03	    1.000000E+03	
   -1.214094E-02	    2.931200E-04	    2.573104E-05	   -1.000000E+00	    1.000000E-03	    1.000000E-03	    1.000000E+03	
   -1.213361E-02	    4.479957E-04	    4.027797E-05	   -1.000000E+00	    1.000000E-03	    1.000000E-03	    1.000000E+03	
   -1.211955E-02	    6.714295E-04	    6.094911E-05	   -1.000000E+00	    1.000000E-03	    1.000000E-03	    1.000000E+03	
   -1.209293E-02	    9.838410E-04	    8.968475E-05	   -1.000000E+00	    1.000000E-03	    1.000000E-03	    1.000000E+03	
   -1.204401E-02	    1.406019E-03	    1.284472E-04	   -1.000000E+00	    1.000000E-03	    1.000000E-03	    1.000000E+03	
   -1.195764E-02	    1.955950E-03	    1.789354E-04	   -1.000000E+00	    1.000000E-03	    1.000000E-03	    1.000000E+03	
   -1.181256E-02	    2.644592E-03	    2.421976E-04	   -1.000000E+00	    1.000000E-03	    1.000000E-03	    1.000000E+03	
   -1.158209E-02	    3.471174E-03	    3.181971E-04	   -1.000000E+00	    1.000000E-03	    1.000000E-03	    1.000000E+03	
   -1.123737E-02	    4.419184E-03	    4.054395E-04	   -1.000000E+00	    1.000000E-03	    1.000000E-03	    1.000000E+03	
   -1.075320E-02	    5.454763E-03	    5.008207E-04	   -1.000000E+00	    1.000000E-03	    1.000000E-03	    1.000000E+03	
   -1.011527E-02	    6.529135E-03	    5.998471E-04	   -1.000000E+00	    1.000000E-03	    1.000000E-03	    1.000000E+03	
   -9.326134E-03	    7.585585E-03	    6.972769E-04	   -1.000000E+00	    1.000000E-03	    1.000000E-03	    1.000000E+03	
   -8.407301E-03	    8.569389E-03	    7.880407E-04	   -1.000000E+00	    1.000000E-03	    1.000000E-03	    1.000000E+03	
   -7.395855E-03	    9.437420E-03	    8.681360E-04	   -1.000000E+00	    1.000000E-03	    1.000000E-03	    1.000000E+03	
   -6.337079E-03	    1.016410E-02	    9.351843E-04	   -1.000000E+00	    1.000000E-03	    1.000000E-03	    1.000000E+03	
   -5.275968E-03	    1.074226E-02	    9.885137E-04	   -1.000000E+00	    1.000000E-03	    1.000000E-03	    1.000000E+03	
   -4.250574E-03	    1.117974E-02	    1.028845E-03	   -1.000000E+00	    1.000000E-03	    1.000000E-03	    1.000000E+03	
   -3.288588E-03	    1.149396E-02	    1.057790E-03	   -1.000000E+00	    1.000000E-03	    1.000000E-03	    1.000000E+03	
   -2.406938E-03	    1.170666E-02	    1.077359E-03	   -1.000000E+00	    1.000000E-03	    1.000000E-03	    1.000000E+03	
   -1.613344E-03	    1.183985E-02	    1.089586E-03	   -1.000000E+00	    1.000000E-03	    1.000000E-03	    1.000000E+03	
   -9.086449E-04	    1.191341E-02	    1.096308E-03	   -1.000000E+00	    1.000000E-03	    1.000000E-03	    1.000000E+03	
   -2.891268E-04	    1.194399E-02	    1.099061E-03	   -1.000000E+00	    1.000000E-03	    1.000000E-03	    1.000000E+03	
    2.891268E-04	    1.194399E-02	    1.099061E-03	   -1.000000E+00	    1.000000E-03	    1.000000E-03	    1.000000E+03	
    9.086449E-04	    1.191341E-02	    1.096308E-03	   -1.000000E+00	    1.000000E-03	    1.000000E-03	    1.000000E+03	
    1.613344E-03	    1.183985E-02	    1.089586E-03	   -1.000000E+00	    1.000000E-03	    1.000000E-03	    1.000000E+03	
    2.406938E-03	    1.170666E-02	    1.077359E-03	   -1.000000E+00	    1.000000E-03	    1.000000E-03	    1.000000E+03	
    3.288588E-03	    1.149396E-02	    1.057790E-03	   -1.000000E+00	    1.000000E-03	    1.000000E-03	    1.000000E+03	
    4.250574E-03	    1.117974E-02	    1.028845E-03	   -1.000000E+00	    1.000000E-03	    1.000000E-03	    1.000000E+03	
    5.275968E-03	    1.074226E-02	    9.885137E-04	   -1.000000E+00	    1.000000E-03	    1.000000E-03	    1.000000E+03	
    6.337079E-03	    1.016410E-02	    9.351843E-04	   -1.000000E+00	    1.000000E-03	    1.000000E-03	    1.000000E+03	
    7.395855E-03	    9.437420E-03	    8.681360E-04	   -1.000000E+00	    1.000000E-03	    1.000000E-03	    1.000000E+03	
    8.407301E-03	    8.569389E-03	    7.880407E-04	   -1.000000E+00	    1.000000E-03	    1.000000E-03	    1.000000E+03	
    9.326134E-03	    7.585585E-03	    6.972769E-04	   -1.000000E+00	    1.000000E-03	    1.000000E-03	    1.000000E+03	
    1.011527E-02	    6.529135E-03	    5.998471E-04	   -1.000000E+00	    1.000000E-03	    1.000000E-03	    1.000000E+03	
    1.075320E-02	    5.454763E-03	    5.008207E-04	   -1.000000E+00	    1.000000E-03	    1.000000E-03	    1.000000E+03	
    1.123737E-02	    4.419184E-03	    4.054395E-04	   -1.000000E+00	    1.000000E-03	    1.000000E-03	    1.000000E+03	
    1.158209E-02	    3.471174E-03	    3.181971E-04	   -1.000000E+00	    1.000000E-03	    1.000000E-03	    1.000000E+03	
    1.181256E-02	    2.644592E-03	    2.421976E-04	   -1.000000E+00	    1.000000E-03	    1.000000E-03	    1.000000E+03	
    1.195764E-02	    1.955950E-03	    1.789354E-04	   -1.000000E+00	    1.000000E-03	    1.000000E-03	    1.000000E+03	
    1.204401E-02	    1.406019E-03	    1.284472E-04	   -1.000000E+00	    1.000000E-03	    1.000000E-03	    1.000000E+03	
    1.209293E-02	    9.838410E-04	    8.968475E-05	   -1.000000E+00	    1.000000E-03	    1.000000E-03	    1.000000E+03	
    1.211955E-02	    6.714295E-04	    6.094911E-05	   -1.000000E+00	    1.000000E-03	    1.000000E-03	    1.000000E+03	
    1.213361E-02	    4.479957E-04	    4.027797E-05	   -1.000000E+00	    1.000000E-03	    1.000000E-03	    1.000000E+03	
    1.214094E-02	    2.931200E-04	    2.573104E-05	   -1.000000E+00	    1.000000E-03	    1.000000E-03	    1.000000E+03	
    1.214476E-02	    1.887422E-04	    1.555885E-05	   -1.000000E+00	    1.000000E-03	    1.000000E-03	    1.000000E+03	
    1.214679E-02	    1.200973E-04	    8.265885E-06	   -1.000000E+00	    1.000000E-03	    1.000000E-03	    1.000000E+03	
    1.214788E-02	    7.586052E-05	    2.589966E-06	   -1.000000E+00	    1.000000E-03	    1.000000E-03	    1.000000E+03	
    1.214823E-02	    6.021683E-05	    0.000000E+00	    0.000000E+00	    1.000000E-03	    1.000000E-03	    1.000000E+03	
   -1.214729E-02	    6.018900E-05	    0.000000E+00	    0.000000E+00	    1.000000E-03	    1.000000E-03	    1.000000E+03	
   -1.214670E-02	    7.582392E-05	    8.580854E-06	   -1.000000E+00	    1.000000E-03	    1.000000E-03	    1.000000E+03	
   -1.214491E-02	    1.200325E-04	    2.738760E-05	   -1.000000E+00	    1.000000E-03	    1.000000E-03	    1.000000E+03	
   -1.214181E-02	    1.886237E-04	    5.154761E-05	   -1.000000E+00	    1.000000E-03	    1.000000E-03	    1.000000E+03	
   -1.213636E-02	    2.928966E-04	    8.523607E-05	   -1.000000E+00	    1.000000E-03	    1.000000E-03	    1.000000E+03	
   -1.212662E-02	    4.475651E-04	    1.333927E-04	   -1.000000E+00	    1.000000E-03	    1.000000E-03	    1.000000E+03	
   -1.210908E-02	    6.705914E-04	    2.017820E-04	   -1.000000E+00	    1.000000E-03	    1.000000E-03	    1.000000E+03	
   -1.207763E-02	    9.822180E-04	    2.967725E-04	   -1.000000E+00	    1.000000E-03	    1.000000E-03	    1.000000E+03	
   -1.202224E-02	    1.402938E-03	    4.247616E-04	   -1.000000E+00	    1.000000E-03	    1.000000E-03	    1.000000E+03	
   -1.192760E-02	    1.950285E-03	    5.912161E-04	   -1.000000E+00	    1.000000E-03	    1.000000E-03	    1.000000E+03	
   -1.177247E-02	    2.634602E-03	    7.993851E-04	   -1.000000E+00	    1.000000E-03	    1.000000E-03	    1.000000E+03	
   -1.153054E-02	    3.454397E-03	    1.048880E-03	   -1.000000E+00	    1.000000E-03	    1.000000E-03	    1.000000E+03	
   -1.117378E-02	    4.392486E-03	    1.334498E-03	   -1.000000E+00	    1.000000E-03	    1.000000E-03	    1.000000E+03	
   -1.067819E-02	    5.414628E-03	    1.645801E-03	   -1.000000E+00	    1.000000E-03	    1.000000E-03	    1.000000E+03	
   -1.003092E-02	    6.472203E-03	    1.967946E-03	   -1.000000E+00	    1.000000E-03	    1.000000E-03	    1.000000E+03	
   -9.235911E-03	    7.509311E-03	    2.283850E-03	   -1.000000E+00	    1.000000E-03	    1.000000E-03	    1.000000E+03	
   -8.315534E-03	    8.472592E-03	    2.577207E-03	   -1.000000E+00	    1.000000E-03	    1.000000E-03	    1.000000E+03	
   -7.307049E-03	    9.320512E-03	    2.835336E-03	   -1.000000E+00	    1.000000E-03	    1.000000E-03	    1.000000E+03	
   -6.255202E-03	    1.002892E-02	    3.050880E-03	   -1.000000E+00	    1.000000E-03	    1.000000E-03	    1.000000E+03	
   -5.203977E-03	    1.059161E-02	    3.221969E-03	   -1.000000E+00	    1.000000E-03	    1.000000E-03	    1.000000E+03	
   -4.190246E-03	    1.101682E-02	    3.351151E-03	   -1.000000E+00	    1.000000E-03	    1.000000E-03	    1.000000E+03	
   -3.240620E-03	    1.132195E-02	    3.443751E-03	   -1.000000E+00	    1.000000E-03	    1.000000E-03	    1.000000E+03	
   -2.371191E-03	    1.152836E-02	    3.506300E-03	   -1.000000E+00	    1.000000E-03	    1.000000E-03	    1.000000E+03	
   -1.589114E-03	    1.165755E-02	    3.545358E-03	   -1.000000E+00	    1.000000E-03	    1.000000E-03	    1.000000E+03	
   -8.949151E-04	    1.172888E-02	    3.566819E-03	   -1.000000E+00	    1.000000E-03	    1.000000E-03	    1.000000E+03	
   -2.847470E-04	    1.175853E-02	    3.575604E-03	   -1.000000E+00	    1.000000E-03	    1.000000E-03	    1.000000E+03	
    2.847470E-04	    1.175853E-02	    3.575604E-03	   -1.000000E+00	    1.000000E-03	    1.000000E-03	    1.000000E+03	
    8.949151E-04	    1.172888E-02	    3.566819E-03	   -1.000000E+00	    1.000000E-03	    1.000000E-03	    1.000000E+03	
    1.589114E-03	    1.165755E-02	    3.545358E-03	   -1.000000E+00	    1.000000E-03	    1.000000E-03	    1.000000E+03	
    2.371191E-03	    1.152836E-02	    3.506300E-03	   -1.000000E+00	    1.000000E-03	    1.000000E-03	    1.000000E+03	
    3.240620E-03	    1.132195E-02	    3.443751E-03	   -1.000000E+00	    1.000000E-03	    1.000000E-03	    1.000000E+03	
    4.190246E-03	    1.101682E-02	    3.351151E-03	   -1.000000E+00	    1.000000E-03	    1.000000E-03	    1.000000E+03	
    5.203977E-03	    1.059161E-02	    3.221969E-03	   -1.000000E+00	    1.000000E-03	    1.000000E-03	    1.000000E+03	
    6.255202E-03	    1.002892E-02	    3.050880E-03	   -1.000000E+00	    1.000000E-03	    1.000000E-03	    1.000000E+03	
    7.307049E-03	    9.320512E-03	    2.835336E-03	   -1.000000E+00	    1.000000E-03	    1.000000E-03	    1.000000E+03	
    8.315534E-03	    8.472592E-03	    2.577207E-03	   -1.000000E+00	    1.000000E-03	    1.000000E-03	    1.000000E+03	
    9.235911E-03	    7.509311E-03	    2.283850E-03	   -1.000000E+00	    1.000000E-03	    1.000000E-03	    1.000000E+03	
    1.003092E-02	    6.472203E-03	    1.967946E-03	   -1.000000E+00	    1.000000E-03	    1.000000E-03	    1.000000E+03	
    1.067819E-02	    5.414628E-03	    1.645801E-03	   -1.000000E+00	    1.000000E-03	    1.000000E-03	    1.000000E+03	
    1.117378E-02	    4.392486E-03	    1.334498E-03	   -1.000000E+00	    1.000000E-03	    1.000000E-03	    1.000000E+03	
    1.153054E-02	    3.454397E-03	    1.048880E-03	   -1.000000E+00	    1.000000E-03	    1.000000E-03	    1.000000E+03	
    1.177247E-02	    2.634602E-03	    7.993851E-04	   -1.000000E+00	    1.000000E-03	    1.000000E-03	    1.000000E+03	
    1.192760E-02	    1.950285E-03	    5.912161E-04	   -1.000000E+00	    1.000000E-03	    1.000000E-03	    1.000000E+03	
    1.202224E-02	    1.402938E-03	    4.247616E-04	   -1.000000E+00	    1.000000E-03	    1.000000E-03	    1.000000E+03	
    1.207763E-02	    9.822180E-04	    2.967725E-04	   -1.000000E+00	    1.000000E-03	    1.000000E-03	    1.000000E+03	
    1.210908E-02	    6.705914E-04	    2.017820E-04	   -1.000000E+00	    1.000000E-03	    1.000000E-03	    1.000000E+03	
    1.212662E-02	    4.475651E-04	    1.333927E-04	   -1.000000E+00	    1.000000E-03	    1.000000E-03	    1.000000E+03	
    1.213636E-02	    2.928966E-04	    8.523607E-05	   -1.000000E+00	    1.000000E-03	    1.000000E-03	    1.000000E+03	
    1.214181E-02	    1.886237E-04	    5.154761E-05	   -1.000000E+00	    1.000000E-03	    1.000000E-03	    1.000000E+03	
    1.214491E-02	    1.200325E-04	    2.738760E-05	   -1.000000E+00	    1.000000E-03	    1.000000E-03	    1.000000E+03	
    1.214670E-02	    7.582392E-05	    8.580854E-06	   -1.000000E+00	    1.000000E-03	    1.000000E-03	    1.000000E+03	
    1.214729E-02	    6.018900E-05	    0.000000E+00	    0.000000E+00	    1.000000E-03	    1.000000E-03	    1.000000E+03	
   -1.214606E-02	    6.013027E-05	    0.000000E+00	    0.000000E+00	    1.000000E-03	    1.000000E-03	    1.000000E+03	
   -1.214514E-02	    7.574794E-05	    1.641883E-05	   -1.000000E+00	    1.000000E-03	    1.000000E-03	    1.000000E+03	
   -1.214245E-02	    1.199033E-04	    5.240762E-05	   -1.000000E+00	    1.000000E-03	    1.000000E-03	    1.000000E+03	
   -1.213795E-02	    1.883989E-04	    9.863058E-05	   -1.000000E+00	    1.000000E-03	    1.000000E-03	    1.000000E+03	
   -1.213037E-02	    2.924961E-04	    1.630627E-04	   -1.000000E+00	    1.000000E-03	    1.000000E-03	    1.000000E+03	
   -1.211747E-02	    4.468365E-04	    2.551239E-04	   -1.000000E+00	    1.000000E-03	    1.000000E-03	    1.000000E+03	
   -1.209540E-02	    6.692483E-04	    3.857775E-04	   -1.000000E+00	    1.000000E-03	    1.000000E-03	    1.000000E+03	
   -1.205766E-02	    9.797366E-04	    5.670830E-04	   -1.000000E+00	    1.000000E-03	    1.000000E-03	    1.000000E+03	
   -1.199387E-02	    1.398403E-03	    8.110640E-04	   -1.000000E+00	    1.000000E-03	    1.000000E-03	    1.000000E+03	
   -1.188851E-02	    1.942193E-03	    1.127844E-03	   -1.000000E+00	    1.000000E-03	    1.000000E-03	    1.000000E+03	
   -1.172040E-02	    2.620657E-03	    1.523175E-03	   -1.000000E+00	    1.000000E-03	    1.000000E-03	    1.000000E+03	
   -1.146377E-02	    3.431391E-03	    1.995770E-03	   -1.000000E+00	    1.000000E-03	    1.000000E-03	    1.000000E+03	
   -1.109163E-02	    4.356382E-03	    2.535163E-03	   -1.000000E+00	    1.000000E-03	    1.000000E-03	    1.000000E+03	
   -1.058159E-02	    5.360950E-03	    3.121097E-03	   -1.000000E+00	    1.000000E-03	    1.000000E-03	    1.000000E+03	
   -9.922640E-03	    6.396738E-03	    3.725279E-03	   -1.000000E+00	    1.000000E-03	    1.000000E-03	    1.000000E+03	
   -9.120433E-03	    7.408937E-03	    4.315634E-03	   -1.000000E+00	    1.000000E-03	    1.000000E-03	    1.000000E+03	
   -8.198414E-03	    8.345956E-03	    4.861975E-03	   -1.000000E+00	    1.000000E-03	    1.000000E-03	    1.000000E+03	
   -7.193993E-03	    9.168280E-03	    5.341213E-03	   -1.000000E+00	    1.000000E-03	    1.000000E-03	    1.000000E+03	
   -6.151187E-03	    9.853531E-03	    5.740315E-03	   -1.000000E+00	    1.000000E-03	    1.000000E-03	    1.000000E+03	
   -5.112672E-03	    1.039668E-02	    6.056408E-03	   -1.000000E+00	    1.000000E-03	    1.000000E-03	    1.000000E+03	
   -4.113830E-03	    1.080645E-02	    6.294665E-03	   -1.000000E+00	    1.000000E-03	    1.000000E-03	    1.000000E+03	
   -3.179916E-03	    1.110015E-02	    6.465232E-03	   -1.000000E+00	    1.000000E-03	    1.000000E-03	    1.000000E+03	
   -2.325979E-03	    1.129865E-02	    6.580338E-03	   -1.000000E+00	    1.000000E-03	    1.000000E-03	    1.000000E+03	
   -1.558481E-03	    1.142283E-02	    6.652167E-03	   -1.000000E+00	    1.000000E-03	    1.000000E-03	    1.000000E+03	
   -8.775603E-04	    1.149137E-02	    6.691615E-03	   -1.000000E+00	    1.000000E-03	    1.000000E-03	    1.000000E+03	
   -2.792113E-04	    1.151986E-02	    6.707754E-03	   -1.000000E+00	    1.000000E-03	    1.000000E-03	    1.000000E+03	
    2.792113E-04	    1.151986E-02	    6.707754E-03	   -1.000000E+00	    1.000000E-03	    1.000000E-03	    1.000000E+03	
    8.775603E-04	    1.149137E-02	    6.691615E-03	   -1.000000E+00	    1.000000E-03	    1.000000E-03	    1.000000E+03	
    1.558481E-03	    1.142283E-02	    6.652167E-03	   -1.000000E+00	    1.000000E-03	    1.000000E-03	    1.000000E+03	
    2.325979E-03	    1.129865E-02	    6.580338E-03	   -1.000000E+00	    1.000000E-03	    1.000000E-03	    1.000000E+03	
    3.179916E-03	    1.110015E-02	    6.465232E-03	   -1.000000E+00	    1.000000E-03	    1.000000E-03	    1.000000E+03	
    4.113830E-03	    1.080645E-02	    6.294665E-03	   -1.000000E+00	    1.000000E-03	    1.000000E-03	    1.000000E+03	
    5.112672E-03	    1.039668E-02	    6.056408E-03	   -1.000000E+00	    1.000000E-03	    1.000000E-03	    1.000000E+03	
    6.151187E-03	    9.853531E-03	    5.740315E-03	   -1.000000E+00	    1.000000E-03	    1.000000E-03	    1.000000E+03	
    7.193993E-03	    9.168280E-03	    5.341213E-03	   -1.000000E+00	    1.000000E-03	    1.000000E-03	    1.000000E+03	
    8.198414E-03	    8.345956E-03	    4.861975E-03	   -1.000000E+00	    1.000000E-03	    1.000000E-03	    1.000000E+03	
    9.120433E-03	    7.408937E-03	    4.315634E-03	   -1.000000E+00	    1.000000E-03	    1.000000E-03	    1.000000E+03	
    9.922640E-03	    6.396738E-03	    3.725279E-03	   -1.000000E+00	    1.000000E-03	    1.000000E-03	    1.000000E+03	
    1.058159E-02	    5.360950E-03	    3.121097E-03	   -1.000000E+00	    1.000000E-03	    1.000000E-03	    1.000000E+03	
    1.109163E-02	    4.356382E-03	    2.535163E-03	   -1.000000E+00	    1.000000E-03	    1.000000E-03	    1.000000E+03	
    1.146377E-02	    3.431391E-03	    1.995770E-03	   -1.000000E+00	    1.000000E-03	    1.000000E-03	    1.000000E+03	
    1.172040E-02	    2.620657E-03	    1.523175E-03	   -1.000000E+00	    1.000000E-03	    1.000000E-03	    1.000000E+03	
    1.188851E-02	    1.942193E-03	    1.127844E-03	   -1.000000E+00	    1.000000E-03	    1.000000E-03	    1.000000E+03	
    1.199387E-02	    1.398403E-03	    8.110640E-04	   -1.000000E+00	    1.000000E-03	    1.000000E-03	    1.000000E+03	
    1.205766E-02	    9.797366E-04	    5.670830E-04	   -1.000000E+00	    1.000000E-03	    1.000000E-03	    1.000000E+03	
    1.209540E-02	    6.692483E-04	    3.857775E-04	   -1.000000E+00	    1.000000E-03	    1.000000E-03	    1.000000E+03	
    1.211747E-02	    4.468365E-04	    2.551239E-04	   -1.000000E+00	    1.000000E-03	    1.000000E-03	    1.000000E+03	
    1.213037E-02	    2.924961E-04	    1.630627E-04	   -1.000000E+00	    1.000000E-03	    1.000000E-03	    1.000000E+03	
    1.213795E-02	    1.883989E-04	    9.863058E-05	   -1.000000E+00	    1.000000E-03	    1.000000E-03	    1.000000E+03	
    1.214245E-02	    1.199033E-04	    5.240762E-05	   -1.000000E+00	    1.000000E-03	    1.000000E-03	    1.000000E+03	
    1.214514E-02	    7.574794E-05	    1.641883E-05	   -1.000000E+00	    1.000000E-03	    1.000000E-03	    1.000000E+03	
    1.214606E-02	    6.013027E-05	    0.000000E+00	    0.000000E+00	    1.000000E-03	    1.000000E-03	    1.000000E+03	
   -1.214446E-02	    6.001622E-05	    0.000000E+00	    0.000000E+00	    1.000000E-03	    1.000000E-03	    1.000000E+03	
   -1.214313E-02	    7.560169E-05	    2.658903E-05	   -1.000000E+00	    1.000000E-03	    1.000000E-03	    1.000000E+03	
   -1.213926E-02	    1.196602E-04	    8.487650E-05	   -1.000000E+00	    1.000000E-03	    1.000000E-03	    1.000000E+03	
   -1.213294E-02	    1.879888E-04	    1.597191E-04	   -1.000000E+00	    1.000000E-03	    1.000000E-03	    1.000000E+03	
   -1.212260E-02	    2.917928E-04	    2.640032E-04	   -1.000000E+00	    1.000000E-03	    1.000000E-03	    1.000000E+03	
   -1.210562E-02	    4.456116E-04	    4.129175E-04	   -1.000000E+00	    1.000000E-03	    1.000000E-03	    1.000000E+03	
   -1.207769E-02	    6.670890E-04	    6.240804E-04	   -1.000000E+00	    1.000000E-03	    1.000000E-03	    1.000000E+03	
   -1.203184E-02	    9.759126E-04	    9.167638E-04	   -1.000000E+00	    1.000000E-03	    1.000000E-03	    1.000000E+03	
   -1.195724E-02	    1.391672E-03	    1.309998E-03	   -1.000000E+00	    1.000000E-03	    1.000000E-03	    1.000000E+03	
   -1.183814E-02	    1.930551E-03	    1.819495E-03	   -1.000000E+00	    1.000000E-03	    1.000000E-03	    1.000000E+03	
   -1.165350E-02	    2.601098E-03	    2.453646E-03	   -1.000000E+00	    1.000000E-03	    1.000000E-03	    1.000000E+03	
   -1.137824E-02	    3.399777E-03	    3.209287E-03	   -1.000000E+00	    1.000000E-03	    1.000000E-03	    1.000000E+03	
   -1.098678E-02	    4.307583E-03	    4.068491E-03	   -1.000000E+00	    1.000000E-03	    1.000000E-03	    1.000000E+03	
   -1.045876E-02	    5.289369E-03	    4.997929E-03	   -1.000000E+00	    1.000000E-03	    1.000000E-03	    1.000000E+03	
   -9.785514E-03	    6.297203E-03	    5.952080E-03	   -1.000000E+00	    1.000000E-03	    1.000000E-03	    1.000000E+03	
   -8.974767E-03	    7.277737E-03	    6.880254E-03	   -1.000000E+00	    1.000000E-03	    1.000000E-03	    1.000000E+03	
   -8.051211E-03	    8.181637E-03	    7.735598E-03	   -1.000000E+00	    1.000000E-03	    1.000000E-03	    1.000000E+03	
   -7.052348E-03	    8.971899E-03	    8.483017E-03	   -1.000000E+00	    1.000000E-03	    1.000000E-03	    1.000000E+03	
   -6.021214E-03	    9.628303E-03	    9.103411E-03	   -1.000000E+00	    1.000000E-03	    1.000000E-03	    1.000000E+03	
   -4.998820E-03	    1.014722E-02	    9.593450E-03	   -1.000000E+00	    1.000000E-03	    1.000000E-03	    1.000000E+03	
   -4.018694E-03	    1.053791E-02	    9.962043E-03	   -1.000000E+00	    1.000000E-03	    1.000000E-03	    1.000000E+03	
   -3.104426E-03	    1.081751E-02	    1.022550E-02	   -1.000000E+00	    1.000000E-03	    1.000000E-03	    1.000000E+03	
   -2.269797E-03	    1.100629E-02	    1.040310E-02	   -1.000000E+00	    1.000000E-03	    1.000000E-03	    1.000000E+03	
   -1.520434E-03	    1.112430E-02	    1.051383E-02	   -1.000000E+00	    1.000000E-03	    1.000000E-03	    1.000000E+03	
   -8.560112E-04	    1.118941E-02	    1.057461E-02	   -1.000000E+00	    1.000000E-03	    1.000000E-03	    1.000000E+03	
   -2.723385E-04	    1.121646E-02	    1.059946E-02	   -1.000000E+00	    1.000000E-03	    1.000000E-03	    1.000000E+03	
    2.723385E-04	    1.121646E-02	    1.059946E-02	   -1.000000E+00	    1.000000E-03	    1.000000E-03	    1.000000E+03	
    8.560112E-04	    1.118941E-02	    1.057461E-02	   -1.000000E+00	    1.000000E-03	    1.000000E-03	    1.000000E+03	
    1.520434E-03	    1.112430E-02	    1.051383E-02	   -1.000000E+00	    1.000000E-03	    1.000000E-03	    1.000000E+03	
    2.269797E-03	    1.100629E-02	    1.040310E-02	   -1.000000E+00	    1.000000E-03	    1.000000E-03	    1.000000E+03	
    3.104426E-03	    1.081751E-02	    1.022550E-02	   -1.000000E+00	    1.000000E-03	    1.000000E-03	    1.000000E+03	
    4.018694E-03	    1.053791E-02	    9.962043E-03	   -1.000000E+00	    1.000000E-03	    1.000000E-03	    1.000000E+03	
    4.998820E-03	    1.014722E-02	    9.593450E-03	   -1.000000E+00	    1.000000E-03	    1.000000E-03	    1.000000E+03	
    6.021214E-03	    9.628303E-03	    9.103411E-03	   -1.000000E+00	    1.000000E-03	    1.000000E-03	    1.000000E+03	
    7.052348E-03	    8.971899E-03	    8.483017E-03	   -1.000000E+00	    1.000000E-03	    1.000000E-03	    1.000000E+03	
    8.051211E-03	    8.181637E-03	    7.735598E-03	   -1.000000E+00	    1.000000E-03	    1.000000E-03	    1.000000E+03	
    8.974767E-03	    7.277737E-03	    6.880254E-03	   -1.000000E+00	    1.000000E-03	    1.000000E-03	    1.000000E+03	
    9.785514E-03	    6.297203E-03	    5.952080E-03	   -1.000000E+00	    1.000000E-03	    1.000000E-03	    1.000000E+03	
    1.045876E-02	    5.289369E-03	    4.997929E-03	   -1.000000E+00	    1.000000E-03	    1.000000E-03	    1.000000E+03	
    1.098678E-02	    4.307583E-03	    4.068491E-03	   -1.000000E+00	    1.000000E-03	    1.000000E-03	    1.000000E+03	
    1.137824E-02	    3.399777E-03	    3.209287E-03	   -1.000000E+00	    1.000000E-03	    1.000000E-03	    1.000000E+03	