Title="Fields"
Variables="X""Y""Velocity""Phi""Effective Viscosity""Dynamic Viscosity""Density"
Zone I=52 J=52 F=POINT
   -1.208307E-02	    5.954064E-05	    0.000000E+00	    0.000000E+00	    1.000000E-03	    1.000000E-03	    1.000000E+03	
   -1.208470E-02	    7.502088E-05	    0.000000E+00	    0.000000E+00	    1.000000E-03	    1.000000E-03	    1.000000E+03	
   -1.208918E-02	    1.188228E-04	    0.000000E+00	    0.000000E+00	    1.000000E-03	    1.000000E-03	    1.000000E+03	
   -1.209582E-02	    1.868730E-04	    0.000000E+00	    0.000000E+00	    1.000000E-03	    1.000000E-03	    1.000000E+03	
   -1.210519E-02	    2.905334E-04	    0.000000E+00	    0.000000E+00	    1.000000E-03	    1.000000E-03	    1.000000E+03	
   -1.211749E-02	    4.447618E-04	    0.000000E+00	    0.000000E+00	    1.000000E-03	    1.000000E-03	    1.000000E+03	
   -1.213179E-02	    6.681444E-04	    0.000000E+00	    0.000000E+00	    1.000000E-03	    1.000000E-03	    1.000000E+03	
   -1.214493E-02	    9.822447E-04	    0.000000E+00	    0.000000E+00	    1.000000E-03	    1.000000E-03	    1.000000E+03	
   -1.214976E-02	    1.410000E-03	    0.000000E+00	    0.000000E+00	    1.000000E-03	    1.000000E-03	    1.000000E+03	
   -1.213314E-02	    1.972952E-03	    0.000000E+00	    0.000000E+00	    1.000000E-03	    1.000000E-03	    1.000000E+03	
   -1.207430E-02	    2.687248E-03	    0.000000E+00	    0.000000E+00	    1.000000E-03	    1.000000E-03	    1.000000E+03	
   -1.194442E-02	    3.558655E-03	    0.000000E+00	    0.000000E+00	    1.000000E-03	    1.000000E-03	    1.000000E+03	
   -1.170882E-02	    4.577431E-03	    0.000000E+00	    0.000000E+00	    1.000000E-03	    1.000000E-03	    1.000000E+03	
   -1.133242E-02	    5.714679E-03	    0.000000E+00	    0.000000E+00	    1.000000E-03	    1.000000E-03	    1.000000E+03	
   -1.078806E-02	    6.922340E-03	    0.000000E+00	    0.000000E+00	    1.000000E-03	    1.000000E-03	    1.000000E+03	
   -1.006523E-02	    8.138460E-03	    0.000000E+00	    0.000000E+00	    1.000000E-03	    1.000000E-03	    1.000000E+03	
   -9.175620E-03	    9.297366E-03	    0.000000E+00	    0.000000E+00	    1.000000E-03	    1.000000E-03	    1.000000E+03	
   -8.152638E-03	    1.034176E-02	    0.000000E+00	    0.000000E+00	    1.000000E-03	    1.000000E-03	    1.000000E+03	
   -7.044629E-03	    1.123232E-02	    0.000000E+00	    0.000000E+00	    1.000000E-03	    1.000000E-03	    1.000000E+03	
   -5.904793E-03	    1.195170E-02	    0.000000E+00	    0.000000E+00	    1.000000E-03	    1.000000E-03	    1.000000E+03	
   -4.781709E-03	    1.250254E-02	    0.000000E+00	    0.000000E+00	    1.000000E-03	    1.000000E-03	    1.000000E+03	
   -3.713265E-03	    1.290171E-02	    0.000000E+00	    0.000000E+00	    1.000000E-03	    1.000000E-03	    1.000000E+03	
   -2.724616E-03	    1.317360E-02	    0.000000E+00	    0.000000E+00	    1.000000E-03	    1.000000E-03	    1.000000E+03	
   -1.829169E-03	    1.334456E-02	    0.000000E+00	    0.000000E+00	    1.000000E-03	    1.000000E-03	    1.000000E+03	
   -1.031099E-03	    1.343921E-02	    0.000000E+00	    0.000000E+00	    1.000000E-03	    1.000000E-03	    1.000000E+03	
   -3.282105E-04	    1.347861E-02	    0.000000E+00	    0.000000E+00	    1.000000E-03	    1.000000E-03	    1.000000E+03	
    3.282105E-04	    1.347861E-02	    0.000000E+00	    0.000000E+00	    1.000000E-03	    1.000000E-03	    1.000000E+03	
    1.031099E-03	    1.343921E-02	    0.000000E+00	    0.000000E+00	    1.000000E-03	    1.000000E-03	    1.000000E+03	
    1.829169E-03	    1.334456E-02	    0.000000E+00	    0.000000E+00	    1.000000E-03	    1.000000E-03	    1.000000E+03	
    2.724616E-03	    1.317360E-02	    0.000000E+00	    0.000000E+00	    1.000000E-03	    1.000000E-03	    1.000000E+03	
    3.713265E-03	    1.290171E-02	    0.000000E+00	    0.000000E+00	    1.000000E-03	    1.000000E-03	    1.000000E+03	
    4.781709E-03	    1.250254E-02	    0.000000E+00	    0.000000E+00	    1.000000E-03	    1.000000E-03	    1.000000E+03	
    5.904793E-03	    1.195170E-02	    0.000000E+00	    0.000000E+00	    1.000000E-03	    1.000000E-03	    1.000000E+03	
    7.044629E-03	    1.123232E-02	    0.000000E+00	    0.000000E+00	    1.000000E-03	    1.000000E-03	    1.000000E+03	
    8.152638E-03	    1.034176E-02	    0.000000E+00	    0.000000E+00	    1.000000E-03	    1.000000E-03	    1.000000E+03	
    9.175620E-03	    9.297366E-03	    0.000000E+00	    0.000000E+00	    1.000000E-03	    1.000000E-03	    1.000000E+03	
    1.006523E-02	    8.138460E-03	    0.000000E+00	    0.000000E+00	    1.000000E-03	    1.000000E-03	    1.000000E+03	
    1.078806E-02	    6.922340E-03	    0.000000E+00	    0.000000E+00	    1.000000E-03	    1.000000E-03	    1.000000E+03	
    1.133242E-02	    5.714679E-03	    0.000000E+00	    0.000000E+00	    1.000000E-03	    1.000000E-03	    1.000000E+03	
    1.170882E-02	    4.577431E-03	    0.000000E+00	    0.000000E+00	    1.000000E-03	    1.000000E-03	    1.000000E+03	
    1.194442E-02	    3.558655E-03	    0.000000E+00	    0.000000E+00	    1.000000E-03	    1.000000E-03	    1.000000E+03	
    1.207430E-02	    2.687248E-03	    0.000000E+00	    0.000000E+00	    1.000000E-03	    1.000000E-03	    1.000000E+03	
    1.213314E-02	    1.972952E-03	    0.000000E+00	    0.000000E+00	    1.000000E-03	    1.000000E-03	    1.000000E+03	
    1.214976E-02	    1.410000E-03	    0.000000E+00	    0.000000E+00	    1.000000E-03	    1.000000E-03	    1.000000E+03	
    1.214493E-02	    9.822447E-04	    0.000000E+00	    0.000000E+00	    1.000000E-03	    1.000000E-03	    1.000000E+03	
    1.213179E-02	    6.681444E-04	    0.000000E+00	    0.000000E+00	    1.000000E-03	    1.000000E-03	    1.000000E+03	
    1.211749E-02	    4.447618E-04	    0.000000E+00	    0.000000E+00	    1.000000E-03	    1.000000E-03	    1.000000E+03	
    1.210519E-02	    2.905334E-04	    0.000000E+00	    0.000000E+00	    1.000000E-03	    1.000000E-03	    1.000000E+03	
    1.209582E-02	    1.868730E-04	    0.000000E+00	    0.000000E+00	    1.000000E-03	    1.000000E-03	    1.000000E+03	
    1.208918E-02	    1.188228E-04	    0.000000E+00	    0.000000E+00	    1.000000E-03	    1.000000E-03	    1.000000E+03	
    1.208470E-02	    7.502088E-05	    0.000000E+00	    0.000000E+00	    1.000000E-03	    1.000000E-03	    1.000000E+03	
    1.208307E-02	    5.954064E-05	    0.000000E+00	    0.000000E+00	    1.000000E-03	    1.000000E-03	    1.000000E+03	
   -1.208264E-02	    5.958477E-05	    0.000000E+00	    0.000000E+00	    1.000000E-03	    1.000000E-03	    1.000000E+03	
   -1.208415E-02	    7.507579E-05	    3.711064E-05	   -1.000000E+00	    1.000000E-03	    1.600000E-03	    8.010000E+02	
   -1.208831E-02	    1.189066E-04	    1.184725E-04	   -1.000000E+00	    1.000000E-03	    1.600000E-03	    8.010000E+02	
   -1.209445E-02	    1.869971E-04	    2.231280E-04	   -1.000000E+00	    1.000000E-03	    1.600000E-03	    8.010000E+02	
   -1.210307E-02	    2.907083E-04	    3.693590E-04	   -1.000000E+00	    1.000000E-03	    1.600000E-03	    8.010000E+02	
   -1.211424E-02	    4.449881E-04	    5.790239E-04	   -1.000000E+00	    1.000000E-03	    1.600000E-03	    8.010000E+02	
   -1.212691E-02	    6.683943E-04	    8.780708E-04	   -1.000000E+00	    1.000000E-03	    1.600000E-03	    8.010000E+02	
   -1.213774E-02	    9.824260E-04	    1.295977E-03	   -1.000000E+00	    1.000000E-03	    1.600000E-03	    8.010000E+02	
   -1.213943E-02	    1.409896E-03	    1.863790E-03	   -1.000000E+00	    1.000000E-03	    1.600000E-03	    8.010000E+02	
   -1.211872E-02	    1.972138E-03	    2.610516E-03	   -1.000000E+00	    1.000000E-03	    1.600000E-03	    8.010000E+02	
   -1.205476E-02	    2.684984E-03	    3.557819E-03	   -1.000000E+00	    1.000000E-03	    1.600000E-03	    8.010000E+02	
   -1.191884E-02	    3.553793E-03	    4.713399E-03	   -1.000000E+00	    1.000000E-03	    1.600000E-03	    8.010000E+02	
   -1.167658E-02	    4.568376E-03	    6.064209E-03	   -1.000000E+00	    1.000000E-03	    1.600000E-03	    8.010000E+02	
   -1.129349E-02	    5.699476E-03	    7.571677E-03	   -1.000000E+00	    1.000000E-03	    1.600000E-03	    8.010000E+02	
   -1.074320E-02	    6.898916E-03	    9.171781E-03	   -1.000000E+00	    1.000000E-03	    1.600000E-03	    8.010000E+02	
   -1.001606E-02	    8.105000E-03	    1.078214E-02	   -1.000000E+00	    1.000000E-03	    1.600000E-03	    8.010000E+02	
   -9.124453E-03	    9.252706E-03	    1.231561E-02	   -1.000000E+00	    1.000000E-03	    1.600000E-03	    8.010000E+02	
   -8.102101E-03	    1.028564E-02	    1.369637E-02	   -1.000000E+00	    1.000000E-03	    1.600000E-03	    8.010000E+02	
   -6.997225E-03	    1.116540E-02	    1.487262E-02	   -1.000000E+00	    1.000000E-03	    1.600000E-03	    8.010000E+02	
   -5.862533E-03	    1.187538E-02	    1.582181E-02	   -1.000000E+00	    1.000000E-03	    1.600000E-03	    8.010000E+02	
   -4.745921E-03	    1.241861E-02	    1.654782E-02	   -1.000000E+00	    1.000000E-03	    1.600000E-03	    8.010000E+02	
   -3.684593E-03	    1.281204E-02	    1.707327E-02	   -1.000000E+00	    1.000000E-03	    1.600000E-03	    8.010000E+02	
   -2.703138E-03	    1.307991E-02	    1.743062E-02	   -1.000000E+00	    1.000000E-03	    1.600000E-03	    8.010000E+02	
   -1.814564E-03	    1.324830E-02	    1.765478E-02	   -1.000000E+00	    1.000000E-03	    1.600000E-03	    8.010000E+02	
   -1.022809E-03	    1.334151E-02	    1.777831E-02	   -1.000000E+00	    1.000000E-03	    1.600000E-03	    8.010000E+02	
   -3.255639E-04	    1.338031E-02	    1.782898E-02	   -1.000000E+00	    1.000000E-03	    1.600000E-03	    8.010000E+02	
    3.255639E-04	    1.338031E-02	    1.782898E-02	   -1.000000E+00	    1.000000E-03	    1.600000E-03	    8.010000E+02	
    1.022809E-03	    1.334151E-02	    1.777831E-02	   -1.000000E+00	    1.000000E-03	    1.600000E-03	    8.010000E+02	
    1.814564E-03	    1.324830E-02	    1.765478E-02	   -1.000000E+00	    1.000000E-03	    1.600000E-03	    8.010000E+02	
    2.703138E-03	    1.307991E-02	    1.743062E-02	   -1.000000E+00	    1.000000E-03	    1.600000E-03	    8.010000E+02	
    3.684593E-03	    1.281204E-02	    1.707327E-02	   -1.000000E+00	    1.000000E-03	    1.600000E-03	    8.010000E+02	
    4.745921E-03	    1.241861E-02	    1.654782E-02	   -1.000000E+00	    1.000000E-03	    1.600000E-03	    8.010000E+02	
    5.862533E-03	    1.187538E-02	    1.582181E-02	   -1.000000E+00	    1.000000E-03	    1.600000E-03	    8.010000E+02	
    6.997225E-03	    1.116540E-02	    1.487262E-02	   -1.000000E+00	    1.000000E-03	    1.600000E-03	    8.010000E+02	
    8.102101E-03	    1.028564E-02	    1.369637E-02	   -1.000000E+00	    1.000000E-03	    1.600000E-03	    8.010000E+02	
    9.124453E-03	    9.252706E-03	    1.231561E-02	   -1.000000E+00	    1.000000E-03	    1.600000E-03	    8.010000E+02	
    1.001606E-02	    8.105000E-03	    1.078214E-02	   -1.000000E+00	    1.000000E-03	    1.600000E-03	    8.010000E+02	
    1.074320E-02	    6.898916E-03	    9.171781E-03	   -1.000000E+00	    1.000000E-03	    1.600000E-03	    8.010000E+02	
    1.129349E-02	    5.699476E-03	    7.571677E-03	   -1.000000E+00	    1.000000E-03	    1.600000E-03	    8.010000E+02	
    1.167658E-02	    4.568376E-03	    6.064209E-03	   -1.000000E+00	    1.000000E-03	    1.600000E-03	    8.010000E+02	
    1.191884E-02	    3.553793E-03	    4.713399E-03	   -1.000000E+00	    1.000000E-03	    1.600000E-03	    8.010000E+02	
    1.205476E-02	    2.684984E-03	    3.557819E-03	   -1.000000E+00	    1.000000E-03	    1.600000E-03	    8.010000E+02	
    1.211872E-02	    1.972138E-03	    2.610516E-03	   -1.000000E+00	    1.000000E-03	    1.600000E-03	    8.010000E+02	
    1.213943E-02	    1.409896E-03	    1.863790E-03	   -1.000000E+00	    1.000000E-03	    1.600000E-03	    8.010000E+02	
    1.213774E-02	    9.824260E-04	    1.295977E-03	   -1.000000E+00	    1.000000E-03	    1.600000E-03	    8.010000E+02	
    1.212691E-02	    6.683943E-04	    8.780708E-04	   -1.000000E+00	    1.000000E-03	    1.600000E-03	    8.010000E+02	
    1.211424E-02	    4.449881E-04	    5.790239E-04	   -1.000000E+00	    1.000000E-03	    1.600000E-03	    8.010000E+02	
    1.210307E-02	    2.907083E-04	    3.693590E-04	   -1.000000E+00	    1.000000E-03	    1.600000E-03	    8.010000E+02	
    1.209445E-02	    1.869971E-04	    2.231280E-04	   -1.000000E+00	    1.000000E-03	    1.600000E-03	    8.010000E+02	
    1.208831E-02	    1.189066E-04	    1.184725E-04	   -1.000000E+00	    1.000000E-03	    1.600000E-03	    8.010000E+02	
    1.208415E-02	    7.507579E-05	    3.711064E-05	   -1.000000E+00	    1.000000E-03	    1.600000E-03	    8.010000E+02	
    1.208264E-02	    5.958477E-05	    0.000000E+00	    0.000000E+00	    1.000000E-03	    1.000000E-03	    1.000000E+03	
   -1.208164E-02	    5.967478E-05	    0.000000E+00	    0.000000E+00	    1.000000E-03	    1.000000E-03	    1.000000E+03	
   -1.208288E-02	    7.518757E-05	    1.229479E-04	   -1.000000E+00	    1.000000E-03	    1.600000E-03	    8.010000E+02	
   -1.208630E-02	    1.190764E-04	    3.925274E-04	   -1.000000E+00	    1.000000E-03	    1.600000E-03	    8.010000E+02	
   -1.209130E-02	    1.872463E-04	    7.392141E-04	   -1.000000E+00	    1.000000E-03	    1.600000E-03	    8.010000E+02	
   -1.209816E-02	    2.910535E-04	    1.223475E-03	   -1.000000E+00	    1.000000E-03	    1.600000E-03	    8.010000E+02	
   -1.210671E-02	    4.454205E-04	    1.917489E-03	   -1.000000E+00	    1.000000E-03	    1.600000E-03	    8.010000E+02	
   -1.211560E-02	    6.688353E-04	    2.906727E-03	   -1.000000E+00	    1.000000E-03	    1.600000E-03	    8.010000E+02	
   -1.212111E-02	    9.826438E-04	    4.287886E-03	   -1.000000E+00	    1.000000E-03	    1.600000E-03	    8.010000E+02	
   -1.211558E-02	    1.409369E-03	    6.162129E-03	   -1.000000E+00	    1.000000E-03	    1.600000E-03	    8.010000E+02	
   -1.208543E-02	    1.969857E-03	    8.622827E-03	   -1.000000E+00	    1.000000E-03	    1.600000E-03	    8.010000E+02	
   -1.200973E-02	    2.679218E-03	    1.173780E-02	   -1.000000E+00	    1.000000E-03	    1.600000E-03	    8.010000E+02	
   -1.185998E-02	    3.541879E-03	    1.552755E-02	   -1.000000E+00	    1.000000E-03	    1.600000E-03	    8.010000E+02	
   -1.160256E-02	    4.546651E-03	    1.994357E-02	   -1.000000E+00	    1.000000E-03	    1.600000E-03	    8.010000E+02	
   -1.120432E-02	    5.663483E-03	    2.485400E-02	   -1.000000E+00	    1.000000E-03	    1.600000E-03	    8.010000E+02	
   -1.064069E-02	    6.843975E-03	    3.004580E-02	   -1.000000E+00	    1.000000E-03	    1.600000E-03	    8.010000E+02	
   -9.903961E-03	    8.027064E-03	    3.524978E-02	   -1.000000E+00	    1.000000E-03	    1.600000E-03	    8.010000E+02	
   -9.008057E-03	    9.149234E-03	    4.018569E-02	   -1.000000E+00	    1.000000E-03	    1.600000E-03	    8.010000E+02	
   -7.987372E-03	    1.015615E-02	    4.461372E-02	   -1.000000E+00	    1.000000E-03	    1.600000E-03	    8.010000E+02	
   -6.889797E-03	    1.101151E-02	    4.837375E-02	   -1.000000E+00	    1.000000E-03	    1.600000E-03	    8.010000E+02	
   -5.766895E-03	    1.170027E-02	    5.139975E-02	   -1.000000E+00	    1.000000E-03	    1.600000E-03	    8.010000E+02	
   -4.665017E-03	    1.222637E-02	    5.370929E-02	   -1.000000E+00	    1.000000E-03	    1.600000E-03	    8.010000E+02	
   -3.619827E-03	    1.260690E-02	    5.537812E-02	   -1.000000E+00	    1.000000E-03	    1.600000E-03	    8.010000E+02	
   -2.654648E-03	    1.286576E-02	    5.651174E-02	   -1.000000E+00	    1.000000E-03	    1.600000E-03	    8.010000E+02	
   -1.781602E-03	    1.302838E-02	    5.722225E-02	   -1.000000E+00	    1.000000E-03	    1.600000E-03	    8.010000E+02	
   -1.004101E-03	    1.311836E-02	    5.761355E-02	   -1.000000E+00	    1.000000E-03	    1.600000E-03	    8.010000E+02	
   -3.195921E-04	    1.315581E-02	    5.777393E-02	   -1.000000E+00	    1.000000E-03	    1.600000E-03	    8.010000E+02	
    3.195921E-04	    1.315581E-02	    5.777393E-02	   -1.000000E+00	    1.000000E-03	    1.600000E-03	    8.010000E+02	
    1.004101E-03	    1.311836E-02	    5.761355E-02	   -1.000000E+00	    1.000000E-03	    1.600000E-03	    8.010000E+02	
    1.781602E-03	    1.302838E-02	    5.722225E-02	   -1.000000E+00	    1.000000E-03	    1.600000E-03	    8.010000E+02	
    2.654648E-03	    1.286576E-02	    5.651174E-02	   -1.000000E+00	    1.000000E-03	    1.600000E-03	    8.010000E+02	
    3.619827E-03	    1.260690E-02	    5.537812E-02	   -1.000000E+00	    1.000000E-03	    1.600000E-03	    8.010000E+02	
    4.665017E-03	    1.222637E-02	    5.370929E-02	   -1.000000E+00	    1.000000E-03	    1.600000E-03	    8.010000E+02	
    5.766895E-03	    1.170027E-02	    5.139975E-02	   -1.000000E+00	    1.000000E-03	    1.600000E-03	    8.010000E+02	
    6.889797E-03	    1.101151E-02	    4.837375E-02	   -1.000000E+00	    1.000000E-03	    1.600000E-03	    8.010000E+02	
    7.987372E-03	    1.015615E-02	    4.461372E-02	   -1.000000E+00	    1.000000E-03	    1.600000E-03	    8.010000E+02	
    9.008057E-03	    9.149234E-03	    4.018569E-02	   -1.000000E+00	    1.000000E-03	    1.600000E-03	    8.010000E+02	
    9.903961E-03	    8.027064E-03	    3.524978E-02	   -1.000000E+00	    1.000000E-03	    1.600000E-03	    8.010000E+02	
    1.064069E-02	    6.843975E-03	    3.004580E-02	   -1.000000E+00	    1.000000E-03	    1.600000E-03	    8.010000E+02	
    1.120432E-02	    5.663483E-03	    2.485400E-02	   -1.000000E+00	    1.000000E-03	    1.600000E-03	    8.010000E+02	
    1.160256E-02	    4.546651E-03	    1.994357E-02	   -1.000000E+00	    1.000000E-03	    1.600000E-03	    8.010000E+02	
    1.185998E-02	    3.541879E-03	    1.552755E-02	   -1.000000E+00	    1.000000E-03	    1.600000E-03	    8.010000E+02	
    1.200973E-02	    2.679218E-03	    1.173780E-02	   -1.000000E+00	    1.000000E-03	    1.600000E-03	    8.010000E+02	
    1.208543E-02	    1.969857E-03	    8.622827E-03	   -1.000000E+00	    1.000000E-03	    1.600000E-03	    8.010000E+02	
    1.211558E-02	    1.409369E-03	    6.162129E-03	   -1.000000E+00	    1.000000E-03	    1.600000E-03	    8.010000E+02	
    1.212111E-02	    9.826438E-04	    4.287886E-03	   -1.000000E+00	    1.000000E-03	    1.600000E-03	    8.010000E+02	
    1.211560E-02	    6.688353E-04	    2.906727E-03	   -1.000000E+00	    1.000000E-03	    1.600000E-03	    8.010000E+02	
    1.210671E-02	    4.454205E-04	    1.917489E-03	   -1.000000E+00	    1.000000E-03	    1.600000E-03	    8.010000E+02	
    1.209816E-02	    2.910535E-04	    1.223475E-03	   -1.000000E+00	    1.000000E-03	    1.600000E-03	    8.010000E+02	
    1.209130E-02	    1.872463E-04	    7.392141E-04	   -1.000000E+00	    1.000000E-03	    1.600000E-03	    8.010000E+02	
    1.208630E-02	    1.190764E-04	    3.925274E-04	   -1.000000E+00	    1.000000E-03	    1.600000E-03	    8.010000E+02	
    1.208288E-02	    7.518757E-05	    1.229479E-04	   -1.000000E+00	    1.000000E-03	    1.600000E-03	    8.010000E+02	
    1.208164E-02	    5.967478E-05	    0.000000E+00	    0.000000E+00	    1.000000E-03	    1.000000E-03	    1.000000E+03	
   -1.208032E-02	    5.976699E-05	    0.000000E+00	    0.000000E+00	    1.000000E-03	    1.000000E-03	    1.000000E+03	
   -1.208122E-02	    7.530162E-05	    2.352383E-04	   -1.000000E+00	    1.000000E-03	    1.600000E-03	    8.010000E+02	
   -1.208367E-02	    1.192474E-04	    7.510820E-04	   -1.000000E+00	    1.000000E-03	    1.600000E-03	    8.010000E+02	
   -1.208716E-02	    1.874919E-04	    1.414319E-03	   -1.000000E+00	    1.000000E-03	    1.600000E-03	    8.010000E+02	
   -1.209172E-02	    2.913799E-04	    2.340424E-03	   -1.000000E+00	    1.000000E-03	    1.600000E-03	    8.010000E+02	
   -1.209686E-02	    4.457944E-04	    3.667002E-03	   -1.000000E+00	    1.000000E-03	    1.600000E-03	    8.010000E+02	
   -1.210080E-02	    6.691235E-04	    5.556529E-03	   -1.000000E+00	    1.000000E-03	    1.600000E-03	    8.010000E+02	
   -1.209937E-02	    9.825039E-04	    8.192000E-03	   -1.000000E+00	    1.000000E-03	    1.600000E-03	    8.010000E+02	
   -1.208443E-02	    1.408071E-03	    1.176341E-02	   -1.000000E+00	    1.000000E-03	    1.600000E-03	    8.010000E+02	
   -1.204205E-02	    1.966033E-03	    1.644372E-02	   -1.000000E+00	    1.000000E-03	    1.600000E-03	    8.010000E+02	
   -1.195116E-02	    2.670565E-03	    2.235450E-02	   -1.000000E+00	    1.000000E-03	    1.600000E-03	    8.010000E+02	
   -1.178364E-02	    3.524906E-03	    2.952476E-02	   -1.000000E+00	    1.000000E-03	    1.600000E-03	    8.010000E+02	
   -1.150687E-02	    4.516616E-03	    3.785102E-02	   -1.000000E+00	    1.000000E-03	    1.600000E-03	    8.010000E+02	
   -1.108945E-02	    5.614696E-03	    4.707310E-02	   -1.000000E+00	    1.000000E-03	    1.600000E-03	    8.010000E+02	
   -1.050914E-02	    6.770551E-03	    5.678215E-02	   -1.000000E+00	    1.000000E-03	    1.600000E-03	    8.010000E+02	
   -9.760666E-03	    7.924013E-03	    6.647136E-02	   -1.000000E+00	    1.000000E-03	    1.600000E-03	    8.010000E+02	
   -8.859803E-03	    9.013546E-03	    7.562218E-02	   -1.000000E+00	    1.000000E-03	    1.600000E-03	    8.010000E+02	
   -7.841713E-03	    9.987439E-03	    8.379897E-02	   -1.000000E+00	    1.000000E-03	    1.600000E-03	    8.010000E+02	
   -6.753781E-03	    1.081198E-02	    9.071815E-02	   -1.000000E+00	    1.000000E-03	    1.600000E-03	    8.010000E+02	
   -5.646075E-03	    1.147410E-02	    9.627049E-02	   -1.000000E+00	    1.000000E-03	    1.600000E-03	    8.010000E+02	
   -4.562984E-03	    1.197874E-02	    1.004985E-01	   -1.000000E+00	    1.000000E-03	    1.600000E-03	    8.010000E+02	
   -3.538245E-03	    1.234316E-02	    1.035484E-01	   -1.000000E+00	    1.000000E-03	    1.600000E-03	    8.010000E+02	
   -2.593619E-03	    1.259078E-02	    1.056175E-01	   -1.000000E+00	    1.000000E-03	    1.600000E-03	    8.010000E+02	
   -1.740138E-03	    1.274622E-02	    1.069132E-01	   -1.000000E+00	    1.000000E-03	    1.600000E-03	    8.010000E+02	
   -9.805745E-04	    1.283219E-02	    1.076264E-01	   -1.000000E+00	    1.000000E-03	    1.600000E-03	    8.010000E+02	
   -3.120831E-04	    1.286796E-02	    1.079184E-01	   -1.000000E+00	    1.000000E-03	    1.600000E-03	    8.010000E+02	
    3.120831E-04	    1.286796E-02	    1.079184E-01	   -1.000000E+00	    1.000000E-03	    1.600000E-03	    8.010000E+02	
    9.805745E-04	    1.283219E-02	    1.076264E-01	   -1.000000E+00	    1.000000E-03	    1.600000E-03	    8.010000E+02	
    1.740138E-03	    1.274622E-02	    1.069132E-01	   -1.000000E+00	    1.000000E-03	    1.600000E-03	    8.010000E+02	
    2.593619E-03	    1.259078E-02	    1.056175E-01	   -1.000000E+00	    1.000000E-03	    1.600000E-03	    8.010000E+02	
    3.538245E-03	    1.234316E-02	    1.035484E-01	   -1.000000E+00	    1.000000E-03	    1.600000E-03	    8.010000E+02	
    4.562984E-03	    1.197874E-02	    1.004985E-01	   -1.000000E+00	    1.000000E-03	    1.600000E-03	    8.010000E+02	
    5.646075E-03	    1.147410E-02	    9.627049E-02	   -1.000000E+00	    1.000000E-03	    1.600000E-03	    8.010000E+02	
    6.753781E-03	    1.081198E-02	    9.071815E-02	   -1.000000E+00	    1.000000E-03	    1.600000E-03	    8.010000E+02	
    7.841713E-03	    9.987439E-03	    8.379897E-02	   -1.000000E+00	    1.000000E-03	    1.600000E-03	    8.010000E+02	
    8.859803E-03	    9.013546E-03	    7.562218E-02	   -1.000000E+00	    1.000000E-03	    1.600000E-03	    8.010000E+02	
    9.760666E-03	    7.924013E-03	    6.647136E-02	   -1.000000E+00	    1.000000E-03	    1.600000E-03	    8.010000E+02	
    1.050914E-02	    6.770551E-03	    5.678215E-02	   -1.000000E+00	    1.000000E-03	    1.600000E-03	    8.010000E+02	
    1.108945E-02	    5.614696E-03	    4.707310E-02	   -1.000000E+00	    1.000000E-03	    1.600000E-03	    8.010000E+02	
    1.150687E-02	    4.516616E-03	    3.785102E-02	   -1.000000E+00	    1.000000E-03	    1.600000E-03	    8.010000E+02	
    1.178364E-02	    3.524906E-03	    2.952476E-02	   -1.000000E+00	    1.000000E-03	    1.600000E-03	    8.010000E+02	
    1.195116E-02	    2.670565E-03	    2.235450E-02	   -1.000000E+00	    1.000000E-03	    1.600000E-03	    8.010000E+02	
    1.204205E-02	    1.966033E-03	    1.644372E-02	   -1.000000E+00	    1.000000E-03	    1.600000E-03	    8.010000E+02	
    1.208443E-02	    1.408071E-03	    1.176341E-02	   -1.000000E+00	    1.000000E-03	    1.600000E-03	    8.010000E+02	
    1.209937E-02	    9.825039E-04	    8.192000E-03	   -1.000000E+00	    1.000000E-03	    1.600000E-03	    8.010000E+02	
    1.210080E-02	    6.691235E-04	    5.556529E-03	   -1.000000E+00	    1.000000E-03	    1.600000E-03	    8.010000E+02	
    1.209686E-02	    4.457944E-04	    3.667002E-03	   -1.000000E+00	    1.000000E-03	    1.600000E-03	    8.010000E+02	
    1.209172E-02	    2.913799E-04	    2.340424E-03	   -1.000000E+00	    1.000000E-03	    1.600000E-03	    8.010000E+02	
    1.208716E-02	    1.874919E-04	    1.414319E-03	   -1.000000E+00	    1.000000E-03	    1.600000E-03	    8.010000E+02	
    1.208367E-02	    1.192474E-04	    7.510820E-04	   -1.000000E+00	    1.000000E-03	    1.600000E-03	    8.010000E+02	
    1.208122E-02	    7.530162E-05	    2.352383E-04	   -1.000000E+00	    1.000000E-03	    1.600000E-03	    8.010000E+02	
    1.208032E-02	    5.976699E-05	    0.000000E+00	    0.000000E+00	    1.000000E-03	    1.000000E-03	    1.000000E+03	
   -1.207860E-02	    5.984330E-05	    0.000000E+00	    0.000000E+00	    1.000000E-03	    1.000000E-03	    1.000000E+03	
   -1.207906E-02	    7.539498E-05	    3.809105E-04	   -1.000000E+00	    1.000000E-03	    1.600000E-03	    8.010000E+02	
   -1.208025E-02	    1.193828E-04	    1.216287E-03	   -1.000000E+00	    1.000000E-03	    1.600000E-03	    8.010000E+02	
   -1.208177E-02	    1.876743E-04	    2.290048E-03	   -1.000000E+00	    1.000000E-03	    1.600000E-03	    8.010000E+02	
   -1.208335E-02	    2.915915E-04	    3.788727E-03	   -1.000000E+00	    1.000000E-03	    1.600000E-03	    8.010000E+02	
   -1.208405E-02	    4.459544E-04	    5.934109E-03	   -1.000000E+00	    1.000000E-03	    1.600000E-03	    8.010000E+02	
   -1.208158E-02	    6.690089E-04	    8.987128E-03	   -1.000000E+00	    1.000000E-03	    1.600000E-03	    8.010000E+02	
   -1.207118E-02	    9.816057E-04	    1.323996E-02	   -1.000000E+00	    1.000000E-03	    1.600000E-03	    8.010000E+02	
   -1.204412E-02	    1.405366E-03	    1.899303E-02	   -1.000000E+00	    1.000000E-03	    1.600000E-03	    8.010000E+02	
   -1.198603E-02	    1.959665E-03	    2.651488E-02	   -1.000000E+00	    1.000000E-03	    1.600000E-03	    8.010000E+02	
   -1.187578E-02	    2.657485E-03	    3.598604E-02	   -1.000000E+00	    1.000000E-03	    1.600000E-03	    8.010000E+02	
   -1.168573E-02	    3.500577E-03	    4.743319E-02	   -1.000000E+00	    1.000000E-03	    1.600000E-03	    8.010000E+02	
   -1.138465E-02	    4.474981E-03	    6.066825E-02	   -1.000000E+00	    1.000000E-03	    1.600000E-03	    8.010000E+02	
   -1.094340E-02	    5.548611E-03	    7.525538E-02	   -1.000000E+00	    1.000000E-03	    1.600000E-03	    8.010000E+02	
   -1.034269E-02	    6.672769E-03	    9.053158E-02	   -1.000000E+00	    1.000000E-03	    1.600000E-03	    8.010000E+02	
   -9.580217E-03	    7.788556E-03	    1.056940E-01	   -1.000000E+00	    1.000000E-03	    1.600000E-03	    8.010000E+02	
   -8.673960E-03	    8.837000E-03	    1.199385E-01	   -1.000000E+00	    1.000000E-03	    1.600000E-03	    8.010000E+02	
   -7.659865E-03	    9.769676E-03	    1.326051E-01	   -1.000000E+00	    1.000000E-03	    1.600000E-03	    8.010000E+02	
   -6.584555E-03	    1.055603E-02	    1.432781E-01	   -1.000000E+00	    1.000000E-03	    1.600000E-03	    8.010000E+02	
   -5.496171E-03	    1.118531E-02	    1.518126E-01	   -1.000000E+00	    1.000000E-03	    1.600000E-03	    8.010000E+02	
   -4.436656E-03	    1.166363E-02	    1.582936E-01	   -1.000000E+00	    1.000000E-03	    1.600000E-03	    8.010000E+02	
   -3.437392E-03	    1.200835E-02	    1.629588E-01	   -1.000000E+00	    1.000000E-03	    1.600000E-03	    8.010000E+02	
   -2.518251E-03	    1.224225E-02	    1.661190E-01	   -1.000000E+00	    1.000000E-03	    1.600000E-03	    8.010000E+02	
   -1.688966E-03	    1.238894E-02	    1.680960E-01	   -1.000000E+00	    1.000000E-03	    1.600000E-03	    8.010000E+02	
   -9.515498E-04	    1.247003E-02	    1.691832E-01	   -1.000000E+00	    1.000000E-03	    1.600000E-03	    8.010000E+02	
   -3.028206E-04	    1.250376E-02	    1.696282E-01	   -1.000000E+00	    1.000000E-03	    1.600000E-03	    8.010000E+02	
    3.028206E-04	    1.250376E-02	    1.696282E-01	   -1.000000E+00	    1.000000E-03	    1.600000E-03	    8.010000E+02	
    9.515498E-04	    1.247003E-02	    1.691832E-01	   -1.000000E+00	    1.000000E-03	    1.600000E-03	    8.010000E+02	
    1.688966E-03	    1.238894E-02	    1.680960E-01	   -1.000000E+00	    1.000000E-03	    1.600000E-03	    8.010000E+02	
    2.518251E-03	    1.224225E-02	    1.661190E-01	   -1.000000E+00	    1.000000E-03	    1.600000E-03	    8.010000E+02	
    3.437392E-03	    1.200835E-02	    1.629588E-01	   -1.000000E+00	    1.000000E-03	    1.600000E-03	    8.010000E+02	
    4.436656E-03	    1.166363E-02	    1.582936E-01	   -1.000000E+00	    1.000000E-03	    1.600000E-03	    8.010000E+02	
    5.496171E-03	    1.118531E-02	    1.518126E-01	   -1.000000E+00	    1.000000E-03	    1.600000E-03	    8.010000E+02	
    6.584555E-03	    1.055603E-02	    1.432781E-01	   -1.000000E+00	    1.000000E-03	    1.600000E-03	    8.010000E+02	
    7.659865E-03	    9.769676E-03	    1.326051E-01	   -1.000000E+00	    1.000000E-03	    1.600000E-03	    8.010000E+02	
    8.673960E-03	    8.837000E-03	    1.199385E-01	   -1.000000E+00	    1.000000E-03	    1.600000E-03	    8.010000E+02	
    9.580217E-03	    7.788556E-03	    1.056940E-01	   -1.000000E+00	    1.000000E-03	    1.600000E-03	    8.010000E+02	
    1.034269E-02	    6.672769E-03	    9.053158E-02	   -1.000000E+00	    1.000000E-03	    1.600000E-03	    8.010000E+02	
    1.094340E-02	    5.548611E-03	    7.525538E-02	   -1.000000E+00	    1.000000E-03	    1.600000E-03	    8.010000E+02	
    1.138465E-02	    4.474981E-03	    6.066825E-02	   -1.000000E+00	    1.000000E-03	    1.600000E-03	    8.010000E+02	
    1.168573E-02	    3.500577E-03	    4.743319E-02	   -1.000000E+00	    1.000000E-03	    1.600000E-03	    8.010000E+02	