Title="Fields"
Variables="X""Y""Velocity""Phi""Effective Viscosity""Dynamic Viscosity""Density""Eddy Viscosity""K""Epsilon""S"
Zone I=82 J=82 F=POINT
   -2.621627E-02	    1.214755E-04	    0.000000E+00	   -1.000000E+00	    1.640000E-03	    1.640000E-03	    7.900000E+02	    0.000000E+00	    0.000000E+00	    0.000000E+00	    0.000000E+00	
   -2.622336E-02	    1.404004E-04	    0.000000E+00	   -1.000000E+00	    1.640000E-03	    1.640000E-03	    7.900000E+02	    0.000000E+00	    0.000000E+00	    0.000000E+00	    0.000000E+00	
   -2.624093E-02	    1.874659E-04	    0.000000E+00	   -1.000000E+00	    1.640000E-03	    1.640000E-03	    7.900000E+02	    0.000000E+00	    0.000000E+00	    0.000000E+00	    0.000000E+00	
   -2.626409E-02	    2.499125E-04	    0.000000E+00	   -1.000000E+00	    1.640000E-03	    1.640000E-03	    7.900000E+02	    0.000000E+00	    0.000000E+00	    0.000000E+00	    0.000000E+00	
   -2.629437E-02	    3.322652E-04	    0.000000E+00	   -1.000000E+00	    1.640000E-03	    1.640000E-03	    7.900000E+02	    0.000000E+00	    0.000000E+00	    0.000000E+00	    0.000000E+00	
   -2.633359E-02	    4.401074E-04	    0.000000E+00	   -1.000000E+00	    1.640000E-03	    1.640000E-03	    7.900000E+02	    0.000000E+00	    0.000000E+00	    0.000000E+00	    0.000000E+00	
   -2.638380E-02	    5.802150E-04	    0.000000E+00	   -1.000000E+00	    1.640000E-03	    1.640000E-03	    7.900000E+02	    0.000000E+00	    0.000000E+00	    0.000000E+00	    0.000000E+00	
   -2.644723E-02	    7.606684E-04	    0.000000E+00	   -1.000000E+00	    1.640000E-03	    1.640000E-03	    7.900000E+02	    0.000000E+00	    0.000000E+00	    0.000000E+00	    0.000000E+00	
   -2.652616E-02	    9.909272E-04	    0.000000E+00	   -1.000000E+00	    1.640000E-03	    1.640000E-03	    7.900000E+02	    0.000000E+00	    0.000000E+00	    0.000000E+00	    0.000000E+00	
   -2.662271E-02	    1.281853E-03	    0.000000E+00	   -1.000000E+00	    1.640000E-03	    1.640000E-03	    7.900000E+02	    0.000000E+00	    0.000000E+00	    0.000000E+00	    0.000000E+00	
   -2.673850E-02	    1.645662E-03	    0.000000E+00	   -1.000000E+00	    1.640000E-03	    1.640000E-03	    7.900000E+02	    0.000000E+00	    0.000000E+00	    0.000000E+00	    0.000000E+00	
   -2.687426E-02	    2.095793E-03	    0.000000E+00	   -1.000000E+00	    1.640000E-03	    1.640000E-03	    7.900000E+02	    0.000000E+00	    0.000000E+00	    0.000000E+00	    0.000000E+00	
   -2.702927E-02	    2.646665E-03	    0.000000E+00	   -1.000000E+00	    1.640000E-03	    1.640000E-03	    7.900000E+02	    0.000000E+00	    0.000000E+00	    0.000000E+00	    0.000000E+00	
   -2.720077E-02	    3.313304E-03	    0.000000E+00	   -1.000000E+00	    1.640000E-03	    1.640000E-03	    7.900000E+02	    0.000000E+00	    0.000000E+00	    0.000000E+00	    0.000000E+00	
   -2.738321E-02	    4.110805E-03	    0.000000E+00	   -1.000000E+00	    1.640000E-03	    1.640000E-03	    7.900000E+02	    0.000000E+00	    0.000000E+00	    0.000000E+00	    0.000000E+00	
   -2.756758E-02	    5.053594E-03	    0.000000E+00	   -1.000000E+00	    1.640000E-03	    1.640000E-03	    7.900000E+02	    0.000000E+00	    0.000000E+00	    0.000000E+00	    0.000000E+00	
   -2.774081E-02	    6.154469E-03	    0.000000E+00	   -1.000000E+00	    1.640000E-03	    1.640000E-03	    7.900000E+02	    0.000000E+00	    0.000000E+00	    0.000000E+00	    0.000000E+00	
   -2.788528E-02	    7.423394E-03	    0.000000E+00	   -1.000000E+00	    1.640000E-03	    1.640000E-03	    7.900000E+02	    0.000000E+00	    0.000000E+00	    0.000000E+00	    0.000000E+00	
   -2.797880E-02	    8.866065E-03	    0.000000E+00	   -1.000000E+00	    1.640000E-03	    1.640000E-03	    7.900000E+02	    0.000000E+00	    0.000000E+00	    0.000000E+00	    0.000000E+00	
   -2.799504E-02	    1.048234E-02	    0.000000E+00	   -1.000000E+00	    1.640000E-03	    1.640000E-03	    7.900000E+02	    0.000000E+00	    0.000000E+00	    0.000000E+00	    0.000000E+00	
   -2.790461E-02	    1.226469E-02	    0.000000E+00	   -1.000000E+00	    1.640000E-03	    1.640000E-03	    7.900000E+02	    0.000000E+00	    0.000000E+00	    0.000000E+00	    0.000000E+00	
   -2.767689E-02	    1.419688E-02	    0.000000E+00	   -1.000000E+00	    1.640000E-03	    1.640000E-03	    7.900000E+02	    0.000000E+00	    0.000000E+00	    0.000000E+00	    0.000000E+00	
   -2.728254E-02	    1.625330E-02	    0.000000E+00	   -1.000000E+00	    1.640000E-03	    1.640000E-03	    7.900000E+02	    0.000000E+00	    0.000000E+00	    0.000000E+00	    0.000000E+00	
   -2.669653E-02	    1.839912E-02	    0.000000E+00	   -1.000000E+00	    1.640000E-03	    1.640000E-03	    7.900000E+02	    0.000000E+00	    0.000000E+00	    0.000000E+00	    0.000000E+00	
   -2.590118E-02	    2.059167E-02	    0.000000E+00	   -1.000000E+00	    1.640000E-03	    1.640000E-03	    7.900000E+02	    0.000000E+00	    0.000000E+00	    0.000000E+00	    0.000000E+00	
   -2.488887E-02	    2.278293E-02	    0.000000E+00	   -1.000000E+00	    1.640000E-03	    1.640000E-03	    7.900000E+02	    0.000000E+00	    0.000000E+00	    0.000000E+00	    0.000000E+00	
   -2.366367E-02	    2.492311E-02	    0.000000E+00	   -1.000000E+00	    1.640000E-03	    1.640000E-03	    7.900000E+02	    0.000000E+00	    0.000000E+00	    0.000000E+00	    0.000000E+00	
   -2.224162E-02	    2.696458E-02	    0.000000E+00	   -1.000000E+00	    1.640000E-03	    1.640000E-03	    7.900000E+02	    0.000000E+00	    0.000000E+00	    0.000000E+00	    0.000000E+00	
   -2.064951E-02	    2.886572E-02	    0.000000E+00	   -1.000000E+00	    1.640000E-03	    1.640000E-03	    7.900000E+02	    0.000000E+00	    0.000000E+00	    0.000000E+00	    0.000000E+00	
   -1.892229E-02	    3.059394E-02	    0.000000E+00	   -1.000000E+00	    1.640000E-03	    1.640000E-03	    7.900000E+02	    0.000000E+00	    0.000000E+00	    0.000000E+00	    0.000000E+00	
   -1.709981E-02	    3.212744E-02	    0.000000E+00	   -1.000000E+00	    1.640000E-03	    1.640000E-03	    7.900000E+02	    0.000000E+00	    0.000000E+00	    0.000000E+00	    0.000000E+00	
   -1.522315E-02	    3.345558E-02	    0.000000E+00	   -1.000000E+00	    1.640000E-03	    1.640000E-03	    7.900000E+02	    0.000000E+00	    0.000000E+00	    0.000000E+00	    0.000000E+00	
   -1.333154E-02	    3.457801E-02	    0.000000E+00	   -1.000000E+00	    1.640000E-03	    1.640000E-03	    7.900000E+02	    0.000000E+00	    0.000000E+00	    0.000000E+00	    0.000000E+00	
   -1.145987E-02	    3.550289E-02	    0.000000E+00	   -1.000000E+00	    1.640000E-03	    1.640000E-03	    7.900000E+02	    0.000000E+00	    0.000000E+00	    0.000000E+00	    0.000000E+00	
   -9.637247E-03	    3.624469E-02	    0.000000E+00	   -1.000000E+00	    1.640000E-03	    1.640000E-03	    7.900000E+02	    0.000000E+00	    0.000000E+00	    0.000000E+00	    0.000000E+00	
   -7.886337E-03	    3.682190E-02	    0.000000E+00	   -1.000000E+00	    1.640000E-03	    1.640000E-03	    7.900000E+02	    0.000000E+00	    0.000000E+00	    0.000000E+00	    0.000000E+00	
   -6.223503E-03	    3.725506E-02	    0.000000E+00	   -1.000000E+00	    1.640000E-03	    1.640000E-03	    7.900000E+02	    0.000000E+00	    0.000000E+00	    0.000000E+00	    0.000000E+00	
   -4.659372E-03	    3.756507E-02	    0.000000E+00	   -1.000000E+00	    1.640000E-03	    1.640000E-03	    7.900000E+02	    0.000000E+00	    0.000000E+00	    0.000000E+00	    0.000000E+00	
   -3.199701E-03	    3.777204E-02	    0.000000E+00	   -1.000000E+00	    1.640000E-03	    1.640000E-03	    7.900000E+02	    0.000000E+00	    0.000000E+00	    0.000000E+00	    0.000000E+00	
   -1.846331E-03	    3.789452E-02	    0.000000E+00	   -1.000000E+00	    1.640000E-03	    1.640000E-03	    7.900000E+02	    0.000000E+00	    0.000000E+00	    0.000000E+00	    0.000000E+00	
   -5.981094E-04	    3.794907E-02	    0.000000E+00	   -1.000000E+00	    1.640000E-03	    1.640000E-03	    7.900000E+02	    0.000000E+00	    0.000000E+00	    0.000000E+00	    0.000000E+00	
    5.981094E-04	    3.794907E-02	    0.000000E+00	   -1.000000E+00	    1.640000E-03	    1.640000E-03	    7.900000E+02	    0.000000E+00	    0.000000E+00	    0.000000E+00	    0.000000E+00	
    1.846331E-03	    3.789452E-02	    0.000000E+00	   -1.000000E+00	    1.640000E-03	    1.640000E-03	    7.900000E+02	    0.000000E+00	    0.000000E+00	    0.000000E+00	    0.000000E+00	
    3.199701E-03	    3.777204E-02	    0.000000E+00	   -1.000000E+00	    1.640000E-03	    1.640000E-03	    7.900000E+02	    0.000000E+00	    0.000000E+00	    0.000000E+00	    0.000000E+00	
    4.659372E-03	    3.756507E-02	    0.000000E+00	   -1.000000E+00	    1.640000E-03	    1.640000E-03	    7.900000E+02	    0.000000E+00	    0.000000E+00	    0.000000E+00	    0.000000E+00	
    6.223503E-03	    3.725506E-02	    0.000000E+00	   -1.000000E+00	    1.640000E-03	    1.640000E-03	    7.900000E+02	    0.000000E+00	    0.000000E+00	    0.000000E+00	    0.000000E+00	
    7.886337E-03	    3.682190E-02	    0.000000E+00	   -1.000000E+00	    1.640000E-03	    1.640000E-03	    7.900000E+02	    0.000000E+00	    0.000000E+00	    0.000000E+00	    0.000000E+00	
    9.637247E-03	    3.624469E-02	    0.000000E+00	   -1.000000E+00	    1.640000E-03	    1.640000E-03	    7.900000E+02	    0.000000E+00	    0.000000E+00	    0.000000E+00	    0.000000E+00	
    1.145987E-02	    3.550289E-02	    0.000000E+00	   -1.000000E+00	    1.640000E-03	    1.640000E-03	    7.900000E+02	    0.000000E+00	    0.000000E+00	    0.000000E+00	    0.000000E+00	
    1.333154E-02	    3.457801E-02	    0.000000E+00	   -1.000000E+00	    1.640000E-03	    1.640000E-03	    7.900000E+02	    0.000000E+00	    0.000000E+00	    0.000000E+00	    0.000000E+00	
    1.522315E-02	    3.345558E-02	    0.000000E+00	   -1.000000E+00	    1.640000E-03	    1.640000E-03	    7.900000E+02	    0.000000E+00	    0.000000E+00	    0.000000E+00	    0.000000E+00	
    1.709981E-02	    3.212744E-02	    0.000000E+00	   -1.000000E+00	    1.640000E-03	    1.640000E-03	    7.900000E+02	    0.000000E+00	    0.000000E+00	    0.000000E+00	    0.000000E+00	
    1.892229E-02	    3.059394E-02	    0.000000E+00	   -1.000000E+00	    1.640000E-03	    1.640000E-03	    7.900000E+02	    0.000000E+00	    0.000000E+00	    0.000000E+00	    0.000000E+00	
    2.064951E-02	    2.886572E-02	    0.000000E+00	   -1.000000E+00	    1.640000E-03	    1.640000E-03	    7.900000E+02	    0.000000E+00	    0.000000E+00	    0.000000E+00	    0.000000E+00	
    2.224162E-02	    2.696458E-02	    0.000000E+00	   -1.000000E+00	    1.640000E-03	    1.640000E-03	    7.900000E+02	    0.000000E+00	    0.000000E+00	    0.000000E+00	    0.000000E+00	
    2.366367E-02	    2.492311E-02	    0.000000E+00	   -1.000000E+00	    1.640000E-03	    1.640000E-03	    7.900000E+02	    0.000000E+00	    0.000000E+00	    0.000000E+00	    0.000000E+00	
    2.488887E-02	    2.278293E-02	    0.000000E+00	   -1.000000E+00	    1.640000E-03	    1.640000E-03	    7.900000E+02	    0.000000E+00	    0.000000E+00	    0.000000E+00	    0.000000E+00	
    2.590118E-02	    2.059167E-02	    0.000000E+00	   -1.000000E+00	    1.640000E-03	    1.640000E-03	    7.900000E+02	    0.000000E+00	    0.000000E+00	    0.000000E+00	    0.000000E+00	
    2.669653E-02	    1.839912E-02	    0.000000E+00	   -1.000000E+00	    1.640000E-03	    1.640000E-03	    7.900000E+02	    0.000000E+00	    0.000000E+00	    0.000000E+00	    0.000000E+00	
    2.728254E-02	    1.625330E-02	    0.000000E+00	   -1.000000E+00	    1.640000E-03	    1.640000E-03	    7.900000E+02	    0.000000E+00	    0.000000E+00	    0.000000E+00	    0.000000E+00	
    2.767689E-02	    1.419688E-02	    0.000000E+00	   -1.000000E+00	    1.640000E-03	    1.640000E-03	    7.900000E+02	    0.000000E+00	    0.000000E+00	    0.000000E+00	    0.000000E+00	
    2.790461E-02	    1.226469E-02	    0.000000E+00	   -1.000000E+00	    1.640000E-03	    1.640000E-03	    7.900000E+02	    0.000000E+00	    0.000000E+00	    0.000000E+00	    0.000000E+00	
    2.799504E-02	    1.048234E-02	    0.000000E+00	   -1.000000E+00	    1.640000E-03	    1.640000E-03	    7.900000E+02	    0.000000E+00	    0.000000E+00	    0.000000E+00	    0.000000E+00	
    2.797880E-02	    8.866065E-03	    0.000000E+00	   -1.000000E+00	    1.640000E-03	    1.640000E-03	    7.900000E+02	    0.000000E+00	    0.000000E+00	    0.000000E+00	    0.000000E+00	
    2.788528E-02	    7.423394E-03	    0.000000E+00	   -1.000000E+00	    1.640000E-03	    1.640000E-03	    7.900000E+02	    0.000000E+00	    0.000000E+00	    0.000000E+00	    0.000000E+00	
    2.774081E-02	    6.154469E-03	    0.000000E+00	   -1.000000E+00	    1.640000E-03	    1.640000E-03	    7.900000E+02	    0.000000E+00	    0.000000E+00	    0.000000E+00	    0.000000E+00	
    2.756758E-02	    5.053594E-03	    0.000000E+00	   -1.000000E+00	    1.640000E-03	    1.640000E-03	    7.900000E+02	    0.000000E+00	    0.000000E+00	    0.000000E+00	    0.000000E+00	
    2.738321E-02	    4.110805E-03	    0.000000E+00	   -1.000000E+00	    1.640000E-03	    1.640000E-03	    7.900000E+02	    0.000000E+00	    0.000000E+00	    0.000000E+00	    0.000000E+00	
    2.720077E-02	    3.313304E-03	    0.000000E+00	   -1.000000E+00	    1.640000E-03	    1.640000E-03	    7.900000E+02	    0.000000E+00	    0.000000E+00	    0.000000E+00	    0.000000E+00	
    2.702927E-02	    2.646665E-03	    0.000000E+00	   -1.000000E+00	    1.640000E-03	    1.640000E-03	    7.900000E+02	    0.000000E+00	    0.000000E+00	    0.000000E+00	    0.000000E+00	
    2.687426E-02	    2.095793E-03	    0.000000E+00	   -1.000000E+00	    1.640000E-03	    1.640000E-03	    7.900000E+02	    0.000000E+00	    0.000000E+00	    0.000000E+00	    0.000000E+00	
    2.673850E-02	    1.645662E-03	    0.000000E+00	   -1.000000E+00	    1.640000E-03	    1.640000E-03	    7.900000E+02	    0.000000E+00	    0.000000E+00	    0.000000E+00	    0.000000E+00	
    2.662271E-02	    1.281853E-03	    0.000000E+00	   -1.000000E+00	    1.640000E-03	    1.640000E-03	    7.900000E+02	    0.000000E+00	    0.000000E+00	    0.000000E+00	    0.000000E+00	
    2.652616E-02	    9.909272E-04	    0.000000E+00	   -1.000000E+00	    1.640000E-03	    1.640000E-03	    7.900000E+02	    0.000000E+00	    0.000000E+00	    0.000000E+00	    0.000000E+00	
    2.644723E-02	    7.606684E-04	    0.000000E+00	   -1.000000E+00	    1.640000E-03	    1.640000E-03	    7.900000E+02	    0.000000E+00	    0.000000E+00	    0.000000E+00	    0.000000E+00	
    2.638380E-02	    5.802150E-04	    0.000000E+00	   -1.000000E+00	    1.640000E-03	    1.640000E-03	    7.900000E+02	    0.000000E+00	    0.000000E+00	    0.000000E+00	    0.000000E+00	
    2.633359E-02	    4.401074E-04	    0.000000E+00	   -1.000000E+00	    1.640000E-03	    1.640000E-03	    7.900000E+02	    0.000000E+00	    0.000000E+00	    0.000000E+00	    0.000000E+00	
    2.629437E-02	    3.322652E-04	    0.000000E+00	   -1.000000E+00	    1.640000E-03	    1.640000E-03	    7.900000E+02	    0.000000E+00	    0.000000E+00	    0.000000E+00	    0.000000E+00	
    2.626409E-02	    2.499125E-04	    0.000000E+00	   -1.000000E+00	    1.640000E-03	    1.640000E-03	    7.900000E+02	    0.000000E+00	    0.000000E+00	    0.000000E+00	    0.000000E+00	
    2.624093E-02	    1.874659E-04	    0.000000E+00	   -1.000000E+00	    1.640000E-03	    1.640000E-03	    7.900000E+02	    0.000000E+00	    0.000000E+00	    0.000000E+00	    0.000000E+00	
    2.622336E-02	    1.404004E-04	    0.000000E+00	   -1.000000E+00	    1.640000E-03	    1.640000E-03	    7.900000E+02	    0.000000E+00	    0.000000E+00	    0.000000E+00	    0.000000E+00	
    2.621627E-02	    1.214755E-04	    0.000000E+00	   -1.000000E+00	    1.640000E-03	    1.640000E-03	    7.900000E+02	    0.000000E+00	    0.000000E+00	    0.000000E+00	    0.000000E+00	
   -2.621566E-02	    1.217006E-04	    0.000000E+00	   -1.000000E+00	    1.640000E-03	    1.640000E-03	    7.900000E+02	    0.000000E+00	    0.000000E+00	    0.000000E+00	    0.000000E+00	
   -2.622266E-02	    1.406600E-04	    1.299517E-04	   -1.000000E+00	    1.640845E-03	    1.640000E-03	    7.900000E+02	    5.630257E-06	    1.811770E-03	    4.145219E+01	    3.020114E+04	
   -2.623999E-02	    1.878109E-04	    3.926656E-04	   -1.000000E+00	    1.640840E-03	    1.640000E-03	    7.900000E+02	    5.598489E-06	    1.004810E-03	    1.282233E+01	    1.554734E+05	
   -2.626284E-02	    2.503694E-04	    6.924978E-04	   -1.000000E+00	    1.641264E-03	    1.640000E-03	    7.900000E+02	    8.427481E-06	    1.281185E-03	    1.384826E+01	    2.720044E+05	
   -2.629272E-02	    3.328675E-04	    1.048941E-03	   -1.000000E+00	    1.641934E-03	    1.640000E-03	    7.900000E+02	    1.289057E-05	    1.695796E-03	    1.586151E+01	    3.528959E+05	
   -2.633139E-02	    4.408961E-04	    1.481077E-03	   -1.000000E+00	    1.642854E-03	    1.640000E-03	    7.900000E+02	    1.902569E-05	    2.105577E-03	    1.656806E+01	    4.007477E+05	
   -2.638089E-02	    5.812393E-04	    2.012751E-03	   -1.000000E+00	    1.644102E-03	    1.640000E-03	    7.900000E+02	    2.734384E-05	    2.502422E-03	    1.628288E+01	    4.254411E+05	
   -2.644341E-02	    7.619852E-04	    2.673527E-03	   -1.000000E+00	    1.645782E-03	    1.640000E-03	    7.900000E+02	    3.854936E-05	    2.893862E-03	    1.544572E+01	    4.361720E+05	
   -2.652117E-02	    9.925994E-04	    3.497858E-03	   -1.000000E+00	    1.648025E-03	    1.640000E-03	    7.900000E+02	    5.350128E-05	    3.284719E-03	    1.433843E+01	    4.391451E+05	
   -2.661623E-02	    1.283945E-03	    4.524538E-03	   -1.000000E+00	    1.650981E-03	    1.640000E-03	    7.900000E+02	    7.320954E-05	    3.675668E-03	    1.312123E+01	    4.379534E+05	
   -2.673015E-02	    1.648234E-03	    5.796266E-03	   -1.000000E+00	    1.654824E-03	    1.640000E-03	    7.900000E+02	    9.882862E-05	    4.064353E-03	    1.188419E+01	    4.344548E+05	
   -2.686357E-02	    2.098889E-03	    7.359002E-03	   -1.000000E+00	    1.659746E-03	    1.640000E-03	    7.900000E+02	    1.316428E-04	    4.446741E-03	    1.067963E+01	    4.294584E+05	
   -2.701570E-02	    2.650298E-03	    9.260940E-03	   -1.000000E+00	    1.665956E-03	    1.640000E-03	    7.900000E+02	    1.730431E-04	    4.818372E-03	    9.539286E+00	    4.231647E+05	
   -2.718367E-02	    3.317433E-03	    1.155105E-02	   -1.000000E+00	    1.673675E-03	    1.640000E-03	    7.900000E+02	    2.244971E-04	    5.175393E-03	    8.482925E+00	    4.154568E+05	
   -2.736185E-02	    4.115304E-03	    1.427720E-02	   -1.000000E+00	    1.683127E-03	    1.640000E-03	    7.900000E+02	    2.875144E-04	    5.515385E-03	    7.522491E+00	    4.061330E+05	
   -2.754116E-02	    5.058221E-03	    1.748373E-02	   -1.000000E+00	    1.694540E-03	    1.640000E-03	    7.900000E+02	    3.636030E-04	    5.837707E-03	    6.663874E+00	    3.950928E+05	
   -2.770843E-02	    6.158818E-03	    2.120819E-02	   -1.000000E+00	    1.708129E-03	    1.640000E-03	    7.900000E+02	    4.541930E-04	    6.142969E-03	    5.907257E+00	    3.824342E+05	
   -2.784603E-02	    7.426853E-03	    2.547748E-02	   -1.000000E+00	    1.724077E-03	    1.640000E-03	    7.900000E+02	    5.605119E-04	    6.432027E-03	    5.247839E+00	    3.684541E+05	
   -2.793179E-02	    8.867770E-03	    3.030369E-02	   -1.000000E+00	    1.742513E-03	    1.640000E-03	    7.900000E+02	    6.834208E-04	    6.705274E-03	    4.677508E+00	    3.535834E+05	
   -2.793944E-02	    1.048115E-02	    3.567955E-02	   -1.000000E+00	    1.763484E-03	    1.640000E-03	    7.900000E+02	    8.232298E-04	    6.962425E-03	    4.186678E+00	    3.383057E+05	
   -2.783979E-02	    1.225915E-02	    4.157405E-02	   -1.000000E+00	    1.786927E-03	    1.640000E-03	    7.900000E+02	    9.795155E-04	    7.202632E-03	    3.765657E+00	    3.230897E+05	
   -2.760250E-02	    1.418528E-02	    4.792864E-02	   -1.000000E+00	    1.812645E-03	    1.640000E-03	    7.900000E+02	    1.150967E-03	    7.424729E-03	    3.405397E+00	    3.083451E+05	
   -2.719862E-02	    1.623370E-02	    5.465535E-02	   -1.000000E+00	    1.840295E-03	    1.640000E-03	    7.900000E+02	    1.335298E-03	    7.627508E-03	    3.097824E+00	    2.943980E+05	
   -2.660360E-02	    1.836947E-02	    6.163773E-02	   -1.000000E+00	    1.869388E-03	    1.640000E-03	    7.900000E+02	    1.529252E-03	    7.809978E-03	    2.835895E+00	    2.814838E+05	
   -2.580032E-02	    2.054996E-02	    6.873561E-02	   -1.000000E+00	    1.899312E-03	    1.640000E-03	    7.900000E+02	    1.728745E-03	    7.971584E-03	    2.613533E+00	    2.697509E+05	
   -2.478169E-02	    2.272737E-02	    7.579366E-02	   -1.000000E+00	    1.929368E-03	    1.640000E-03	    7.900000E+02	    1.929123E-03	    8.112346E-03	    2.425508E+00	    2.592718E+05	
   -2.355224E-02	    2.485228E-02	    8.265312E-02	   -1.000000E+00	    1.958830E-03	    1.640000E-03	    7.900000E+02	    2.125533E-03	    8.232902E-03	    2.267292E+00	    2.500573E+05	
   -2.212835E-02	    2.687758E-02	    8.916470E-02	   -1.000000E+00	    1.987000E-03	    1.640000E-03	    7.900000E+02	    2.313331E-03	    8.334456E-03	    2.134943E+00	    2.420719E+05	
   -2.053696E-02	    2.876225E-02	    9.520060E-02	   -1.000000E+00	    2.013270E-03	    1.640000E-03	    7.900000E+02	    2.488464E-03	    8.418662E-03	    2.024997E+00	    2.352467E+05	
   -1.881303E-02	    3.047433E-02	    1.006635E-01	   -1.000000E+00	    2.037166E-03	    1.640000E-03	    7.900000E+02	    2.647773E-03	    8.487450E-03	    1.934387E+00	    2.294918E+05	
   -1.699614E-02	    3.199258E-02	    1.054913E-01	   -1.000000E+00	    2.058372E-03	    1.640000E-03	    7.900000E+02	    2.789149E-03	    8.542864E-03	    1.860394E+00	    2.247049E+05	
   -1.512707E-02	    3.330680E-02	    1.096574E-01	   -1.000000E+00	    2.076735E-03	    1.640000E-03	    7.900000E+02	    2.911565E-03	    8.586911E-03	    1.800599E+00	    2.207789E+05	
   -1.324460E-02	    3.441695E-02	    1.131668E-01	   -1.000000E+00	    2.092246E-03	    1.640000E-03	    7.900000E+02	    3.014976E-03	    8.621460E-03	    1.752860E+00	    2.176071E+05	
   -1.138315E-02	    3.533136E-02	    1.160506E-01	   -1.000000E+00	    2.105021E-03	    1.640000E-03	    7.900000E+02	    3.100142E-03	    8.648176E-03	    1.715288E+00	    2.150871E+05	
   -9.571388E-03	    3.606453E-02	    1.183581E-01	   -1.000000E+00	    2.115262E-03	    1.640000E-03	    7.900000E+02	    3.168411E-03	    8.668498E-03	    1.686226E+00	    2.131233E+05	
   -7.831592E-03	    3.663488E-02	    1.201501E-01	   -1.000000E+00	    2.123226E-03	    1.640000E-03	    7.900000E+02	    3.221504E-03	    8.683642E-03	    1.664235E+00	    2.116285E+05	
   -6.179796E-03	    3.706281E-02	    1.214925E-01	   -1.000000E+00	    2.129199E-03	    1.640000E-03	    7.900000E+02	    3.261327E-03	    8.694617E-03	    1.648072E+00	    2.105246E+05	
   -4.626379E-03	    3.736904E-02	    1.224519E-01	   -1.000000E+00	    2.133472E-03	    1.640000E-03	    7.900000E+02	    3.289812E-03	    8.702251E-03	    1.636672E+00	    2.097428E+05	
   -3.176920E-03	    3.757346E-02	    1.230913E-01	   -1.000000E+00	    2.136323E-03	    1.640000E-03	    7.900000E+02	    3.308818E-03	    8.707221E-03	    1.629131E+00	    2.092236E+05	
   -1.833144E-03	    3.769443E-02	    1.234688E-01	   -1.000000E+00	    2.138008E-03	    1.640000E-03	    7.900000E+02	    3.320053E-03	    8.710076E-03	    1.624682E+00	    2.089155E+05	
   -5.938312E-04	    3.774831E-02	    1.236356E-01	   -1.000000E+00	    2.138756E-03	    1.640000E-03	    7.900000E+02	    3.325042E-03	    8.711263E-03	    1.622687E+00	    2.087748E+05	
    5.938312E-04	    3.774831E-02	    1.236356E-01	   -1.000000E+00	    2.138756E-03	    1.640000E-03	    7.900000E+02	    3.325042E-03	    8.711263E-03	    1.622687E+00	    2.087748E+05	
    1.833144E-03	    3.769443E-02	    1.234688E-01	   -1.000000E+00	    2.138008E-03	    1.640000E-03	    7.900000E+02	    3.320053E-03	    8.710077E-03	    1.624682E+00	    2.089155E+05	
    3.176920E-03	    3.757346E-02	    1.230913E-01	   -1.000000E+00	    2.136323E-03	    1.640000E-03	    7.900000E+02	    3.308818E-03	    8.707221E-03	    1.629131E+00	    2.092236E+05	
    4.626379E-03	    3.736904E-02	    1.224519E-01	   -1.000000E+00	    2.133472E-03	    1.640000E-03	    7.900000E+02	    3.289812E-03	    8.702252E-03	    1.636672E+00	    2.097428E+05	
    6.179796E-03	    3.706281E-02	    1.214925E-01	   -1.000000E+00	    2.129199E-03	    1.640000E-03	    7.900000E+02	    3.261327E-03	    8.694618E-03	    1.648072E+00	    2.105246E+05	
    7.831592E-03	    3.663488E-02	    1.201501E-01	   -1.000000E+00	    2.123226E-03	    1.640000E-03	    7.900000E+02	    3.221505E-03	    8.683643E-03	    1.664235E+00	    2.116285E+05	
    9.571388E-03	    3.606453E-02	    1.183581E-01	   -1.000000E+00	    2.115262E-03	    1.640000E-03	    7.900000E+02	    3.168411E-03	    8.668499E-03	    1.686227E+00	    2.131234E+05	
    1.138315E-02	    3.533136E-02	    1.160506E-01	   -1.000000E+00	    2.105021E-03	    1.640000E-03	    7.900000E+02	    3.100142E-03	    8.648177E-03	    1.715288E+00	    2.150872E+05	
    1.324460E-02	    3.441695E-02	    1.131669E-01	   -1.000000E+00	    2.092246E-03	    1.640000E-03	    7.900000E+02	    3.014976E-03	    8.621461E-03	    1.752861E+00	    2.176072E+05	
    1.512707E-02	    3.330680E-02	    1.096574E-01	   -1.000000E+00	    2.076735E-03	    1.640000E-03	    7.900000E+02	    2.911565E-03	    8.586913E-03	    1.800600E+00	    2.207790E+05	
    1.699614E-02	    3.199258E-02	    1.054913E-01	   -1.000000E+00	    2.058372E-03	    1.640000E-03	    7.900000E+02	    2.789149E-03	    8.542866E-03	    1.860395E+00	    2.247050E+05	
    1.881303E-02	    3.047433E-02	    1.006635E-01	   -1.000000E+00	    2.037166E-03	    1.640000E-03	    7.900000E+02	    2.647773E-03	    8.487453E-03	    1.934388E+00	    2.294919E+05	
    2.053696E-02	    2.876225E-02	    9.520062E-02	   -1.000000E+00	    2.013270E-03	    1.640000E-03	    7.900000E+02	    2.488465E-03	    8.418664E-03	    2.024997E+00	    2.352469E+05	
    2.212835E-02	    2.687758E-02	    8.916473E-02	   -1.000000E+00	    1.987000E-03	    1.640000E-03	    7.900000E+02	    2.313331E-03	    8.334459E-03	    2.134945E+00	    2.420720E+05	
    2.355224E-02	    2.485228E-02	    8.265315E-02	   -1.000000E+00	    1.958830E-03	    1.640000E-03	    7.900000E+02	    2.125534E-03	    8.232905E-03	    2.267294E+00	    2.500575E+05	
    2.478169E-02	    2.272737E-02	    7.579369E-02	   -1.000000E+00	    1.929369E-03	    1.640000E-03	    7.900000E+02	    1.929123E-03	    8.112350E-03	    2.425509E+00	    2.592719E+05	
    2.580032E-02	    2.054996E-02	    6.873564E-02	   -1.000000E+00	    1.899312E-03	    1.640000E-03	    7.900000E+02	    1.728745E-03	    7.971588E-03	    2.613535E+00	    2.697511E+05	
    2.660360E-02	    1.836947E-02	    6.163776E-02	   -1.000000E+00	    1.869388E-03	    1.640000E-03	    7.900000E+02	    1.529252E-03	    7.809982E-03	    2.835897E+00	    2.814841E+05	
    2.719862E-02	    1.623370E-02	    5.465538E-02	   -1.000000E+00	    1.840295E-03	    1.640000E-03	    7.900000E+02	    1.335298E-03	    7.627512E-03	    3.097827E+00	    2.943983E+05	
    2.760250E-02	    1.418528E-02	    4.792867E-02	   -1.000000E+00	    1.812645E-03	    1.640000E-03	    7.900000E+02	    1.150968E-03	    7.424734E-03	    3.405401E+00	    3.083455E+05	
    2.783979E-02	    1.225915E-02	    4.157408E-02	   -1.000000E+00	    1.786927E-03	    1.640000E-03	    7.900000E+02	    9.795159E-04	    7.202638E-03	    3.765661E+00	    3.230902E+05	
    2.793944E-02	    1.048115E-02	    3.567958E-02	   -1.000000E+00	    1.763485E-03	    1.640000E-03	    7.900000E+02	    8.232301E-04	    6.962431E-03	    4.186683E+00	    3.383062E+05	
    2.793179E-02	    8.867770E-03	    3.030372E-02	   -1.000000E+00	    1.742513E-03	    1.640000E-03	    7.900000E+02	    6.834211E-04	    6.705280E-03	    4.677514E+00	    3.535841E+05	
    2.784603E-02	    7.426853E-03	    2.547751E-02	   -1.000000E+00	    1.724077E-03	    1.640000E-03	    7.900000E+02	    5.605122E-04	    6.432033E-03	    5.247847E+00	    3.684549E+05	
    2.770843E-02	    6.158818E-03	    2.120822E-02	   -1.000000E+00	    1.708129E-03	    1.640000E-03	    7.900000E+02	    4.541932E-04	    6.142975E-03	    5.907266E+00	    3.824353E+05	
    2.754116E-02	    5.058221E-03	    1.748376E-02	   -1.000000E+00	    1.694540E-03	    1.640000E-03	    7.900000E+02	    3.636032E-04	    5.837714E-03	    6.663885E+00	    3.950942E+05	
    2.736185E-02	    4.115304E-03	    1.427723E-02	   -1.000000E+00	    1.683127E-03	    1.640000E-03	    7.900000E+02	    2.875146E-04	    5.515391E-03	    7.522505E+00	    4.061349E+05	
    2.718367E-02	    3.317433E-03	    1.155108E-02	   -1.000000E+00	    1.673675E-03	    1.640000E-03	    7.900000E+02	    2.244972E-04	    5.175400E-03	    8.482941E+00	    4.154592E+05	
    2.701570E-02	    2.650298E-03	    9.260976E-03	   -1.000000E+00	    1.665956E-03	    1.640000E-03	    7.900000E+02	    1.730432E-04	    4.818378E-03	    9.539305E+00	    4.231680E+05	
    2.686357E-02	    2.098889E-03	    7.359041E-03	   -1.000000E+00	    1.659746E-03	    1.640000E-03	    7.900000E+02	    1.316429E-04	    4.446746E-03	    1.067965E+01	    4.294629E+05	
    2.673015E-02	    1.648234E-03	    5.796308E-03	   -1.000000E+00	    1.654824E-03	    1.640000E-03	    7.900000E+02	    9.882868E-05	    4.064358E-03	    1.188422E+01	    4.344612E+05	
    2.661623E-02	    1.283945E-03	    4.524583E-03	   -1.000000E+00	    1.650981E-03	    1.640000E-03	    7.900000E+02	    7.320957E-05	    3.675671E-03	    1.312124E+01	    4.379623E+05	
    2.652117E-02	    9.925994E-04	    3.497907E-03	   -1.000000E+00	    1.648025E-03	    1.640000E-03	    7.900000E+02	    5.350127E-05	    3.284717E-03	    1.433843E+01	    4.391574E+05	
    2.644341E-02	    7.619852E-04	    2.673579E-03	   -1.000000E+00	    1.645782E-03	    1.640000E-03	    7.900000E+02	    3.854931E-05	    2.893855E-03	    1.544566E+01	    4.361887E+05	
    2.638089E-02	    5.812393E-04	    2.012802E-03	   -1.000000E+00	    1.644102E-03	    1.640000E-03	    7.900000E+02	    2.734374E-05	    2.502404E-03	    1.628270E+01	    4.254630E+05	