Title="Fields"
Variables="X""Y""Velocity""Phi""Effective Viscosity""Dynamic Viscosity""Density""Eddy Viscosity""K""Epsilon""S"
Zone I=52 J=52 F=POINT
   -2.640323E-02	    1.232255E-04	    0.000000E+00	    0.000000E+00	    1.000000E-03	    1.000000E-03	    1.000000E+03	    0.000000E+00	    0.000000E+00	    0.000000E+00	    0.000000E+00	
   -2.641453E-02	    1.553091E-04	    0.000000E+00	    0.000000E+00	    1.000000E-03	    1.000000E-03	    1.000000E+03	    0.000000E+00	    0.000000E+00	    0.000000E+00	    0.000000E+00	
   -2.644632E-02	    2.461929E-04	    0.000000E+00	    0.000000E+00	    1.000000E-03	    1.000000E-03	    1.000000E+03	    0.000000E+00	    0.000000E+00	    0.000000E+00	    0.000000E+00	
   -2.649510E-02	    3.876897E-04	    0.000000E+00	    0.000000E+00	    1.000000E-03	    1.000000E-03	    1.000000E+03	    0.000000E+00	    0.000000E+00	    0.000000E+00	    0.000000E+00	
   -2.656803E-02	    6.039363E-04	    0.000000E+00	    0.000000E+00	    1.000000E-03	    1.000000E-03	    1.000000E+03	    0.000000E+00	    0.000000E+00	    0.000000E+00	    0.000000E+00	
   -2.667343E-02	    9.272593E-04	    0.000000E+00	    0.000000E+00	    1.000000E-03	    1.000000E-03	    1.000000E+03	    0.000000E+00	    0.000000E+00	    0.000000E+00	    0.000000E+00	
   -2.681946E-02	    1.398952E-03	    0.000000E+00	    0.000000E+00	    1.000000E-03	    1.000000E-03	    1.000000E+03	    0.000000E+00	    0.000000E+00	    0.000000E+00	    0.000000E+00	
   -2.701142E-02	    2.069089E-03	    0.000000E+00	    0.000000E+00	    1.000000E-03	    1.000000E-03	    1.000000E+03	    0.000000E+00	    0.000000E+00	    0.000000E+00	    0.000000E+00	
   -2.724728E-02	    2.994898E-03	    0.000000E+00	    0.000000E+00	    1.000000E-03	    1.000000E-03	    1.000000E+03	    0.000000E+00	    0.000000E+00	    0.000000E+00	    0.000000E+00	
   -2.751167E-02	    4.237091E-03	    0.000000E+00	    0.000000E+00	    1.000000E-03	    1.000000E-03	    1.000000E+03	    0.000000E+00	    0.000000E+00	    0.000000E+00	    0.000000E+00	
   -2.776888E-02	    5.853446E-03	    0.000000E+00	    0.000000E+00	    1.000000E-03	    1.000000E-03	    1.000000E+03	    0.000000E+00	    0.000000E+00	    0.000000E+00	    0.000000E+00	
   -2.795680E-02	    7.888886E-03	    0.000000E+00	    0.000000E+00	    1.000000E-03	    1.000000E-03	    1.000000E+03	    0.000000E+00	    0.000000E+00	    0.000000E+00	    0.000000E+00	
   -2.798494E-02	    1.036192E-02	    0.000000E+00	    0.000000E+00	    1.000000E-03	    1.000000E-03	    1.000000E+03	    0.000000E+00	    0.000000E+00	    0.000000E+00	    0.000000E+00	
   -2.774019E-02	    1.324909E-02	    0.000000E+00	    0.000000E+00	    1.000000E-03	    1.000000E-03	    1.000000E+03	    0.000000E+00	    0.000000E+00	    0.000000E+00	    0.000000E+00	
   -2.710356E-02	    1.647189E-02	    0.000000E+00	    0.000000E+00	    1.000000E-03	    1.000000E-03	    1.000000E+03	    0.000000E+00	    0.000000E+00	    0.000000E+00	    0.000000E+00	
   -2.597687E-02	    1.989358E-02	    0.000000E+00	    0.000000E+00	    1.000000E-03	    1.000000E-03	    1.000000E+03	    0.000000E+00	    0.000000E+00	    0.000000E+00	    0.000000E+00	
   -2.431251E-02	    2.333252E-02	    0.000000E+00	    0.000000E+00	    1.000000E-03	    1.000000E-03	    1.000000E+03	    0.000000E+00	    0.000000E+00	    0.000000E+00	    0.000000E+00	
   -2.213391E-02	    2.659265E-02	    0.000000E+00	    0.000000E+00	    1.000000E-03	    1.000000E-03	    1.000000E+03	    0.000000E+00	    0.000000E+00	    0.000000E+00	    0.000000E+00	
   -1.953598E-02	    2.950216E-02	    0.000000E+00	    0.000000E+00	    1.000000E-03	    1.000000E-03	    1.000000E+03	    0.000000E+00	    0.000000E+00	    0.000000E+00	    0.000000E+00	
   -1.666374E-02	    3.194515E-02	    0.000000E+00	    0.000000E+00	    1.000000E-03	    1.000000E-03	    1.000000E+03	    0.000000E+00	    0.000000E+00	    0.000000E+00	    0.000000E+00	
   -1.367901E-02	    3.387483E-02	    0.000000E+00	    0.000000E+00	    1.000000E-03	    1.000000E-03	    1.000000E+03	    0.000000E+00	    0.000000E+00	    0.000000E+00	    0.000000E+00	
   -1.072892E-02	    3.530651E-02	    0.000000E+00	    0.000000E+00	    1.000000E-03	    1.000000E-03	    1.000000E+03	    0.000000E+00	    0.000000E+00	    0.000000E+00	    0.000000E+00	
   -7.926453E-03	    3.629823E-02	    0.000000E+00	    0.000000E+00	    1.000000E-03	    1.000000E-03	    1.000000E+03	    0.000000E+00	    0.000000E+00	    0.000000E+00	    0.000000E+00	
   -5.344502E-03	    3.692880E-02	    0.000000E+00	    0.000000E+00	    1.000000E-03	    1.000000E-03	    1.000000E+03	    0.000000E+00	    0.000000E+00	    0.000000E+00	    0.000000E+00	
   -3.019941E-03	    3.728027E-02	    0.000000E+00	    0.000000E+00	    1.000000E-03	    1.000000E-03	    1.000000E+03	    0.000000E+00	    0.000000E+00	    0.000000E+00	    0.000000E+00	
   -9.622455E-04	    3.742706E-02	    0.000000E+00	    0.000000E+00	    1.000000E-03	    1.000000E-03	    1.000000E+03	    0.000000E+00	    0.000000E+00	    0.000000E+00	    0.000000E+00	
    9.622455E-04	    3.742706E-02	    0.000000E+00	    0.000000E+00	    1.000000E-03	    1.000000E-03	    1.000000E+03	    0.000000E+00	    0.000000E+00	    0.000000E+00	    0.000000E+00	
    3.019941E-03	    3.728027E-02	    0.000000E+00	    0.000000E+00	    1.000000E-03	    1.000000E-03	    1.000000E+03	    0.000000E+00	    0.000000E+00	    0.000000E+00	    0.000000E+00	
    5.344502E-03	    3.692880E-02	    0.000000E+00	    0.000000E+00	    1.000000E-03	    1.000000E-03	    1.000000E+03	    0.000000E+00	    0.000000E+00	    0.000000E+00	    0.000000E+00	
    7.926453E-03	    3.629823E-02	    0.000000E+00	    0.000000E+00	    1.000000E-03	    1.000000E-03	    1.000000E+03	    0.000000E+00	    0.000000E+00	    0.000000E+00	    0.000000E+00	
    1.072892E-02	    3.530651E-02	    0.000000E+00	    0.000000E+00	    1.000000E-03	    1.000000E-03	    1.000000E+03	    0.000000E+00	    0.000000E+00	    0.000000E+00	    0.000000E+00	
    1.367901E-02	    3.387483E-02	    0.000000E+00	    0.000000E+00	    1.000000E-03	    1.000000E-03	    1.000000E+03	    0.000000E+00	    0.000000E+00	    0.000000E+00	    0.000000E+00	
    1.666374E-02	    3.194515E-02	    0.000000E+00	    0.000000E+00	    1.000000E-03	    1.000000E-03	    1.000000E+03	    0.000000E+00	    0.000000E+00	    0.000000E+00	    0.000000E+00	
    1.953598E-02	    2.950216E-02	    0.000000E+00	    0.000000E+00	    1.000000E-03	    1.000000E-03	    1.000000E+03	    0.000000E+00	    0.000000E+00	    0.000000E+00	    0.000000E+00	
    2.213391E-02	    2.659265E-02	    0.000000E+00	    0.000000E+00	    1.000000E-03	    1.000000E-03	    1.000000E+03	    0.000000E+00	    0.000000E+00	    0.000000E+00	    0.000000E+00	
    2.431251E-02	    2.333252E-02	    0.000000E+00	    0.000000E+00	    1.000000E-03	    1.000000E-03	    1.000000E+03	    0.000000E+00	    0.000000E+00	    0.000000E+00	    0.000000E+00	
    2.597687E-02	    1.989358E-02	    0.000000E+00	    0.000000E+00	    1.000000E-03	    1.000000E-03	    1.000000E+03	    0.000000E+00	    0.000000E+00	    0.000000E+00	    0.000000E+00	
    2.710356E-02	    1.647189E-02	    0.000000E+00	    0.000000E+00	    1.000000E-03	    1.000000E-03	    1.000000E+03	    0.000000E+00	    0.000000E+00	    0.000000E+00	    0.000000E+00	
    2.774019E-02	    1.324909E-02	    0.000000E+00	    0.000000E+00	    1.000000E-03	    1.000000E-03	    1.000000E+03	    0.000000E+00	    0.000000E+00	    0.000000E+00	    0.000000E+00	
    2.798494E-02	    1.036192E-02	    0.000000E+00	    0.000000E+00	    1.000000E-03	    1.000000E-03	    1.000000E+03	    0.000000E+00	    0.000000E+00	    0.000000E+00	    0.000000E+00	
    2.795680E-02	    7.888886E-03	    0.000000E+00	    0.000000E+00	    1.000000E-03	    1.000000E-03	    1.000000E+03	    0.000000E+00	    0.000000E+00	    0.000000E+00	    0.000000E+00	
    2.776888E-02	    5.853446E-03	    0.000000E+00	    0.000000E+00	    1.000000E-03	    1.000000E-03	    1.000000E+03	    0.000000E+00	    0.000000E+00	    0.000000E+00	    0.000000E+00	
    2.751167E-02	    4.237091E-03	    0.000000E+00	    0.000000E+00	    1.000000E-03	    1.000000E-03	    1.000000E+03	    0.000000E+00	    0.000000E+00	    0.000000E+00	    0.000000E+00	
    2.724728E-02	    2.994898E-03	    0.000000E+00	    0.000000E+00	    1.000000E-03	    1.000000E-03	    1.000000E+03	    0.000000E+00	    0.000000E+00	    0.000000E+00	    0.000000E+00	
    2.701142E-02	    2.069089E-03	    0.000000E+00	    0.000000E+00	    1.000000E-03	    1.000000E-03	    1.000000E+03	    0.000000E+00	    0.000000E+00	    0.000000E+00	    0.000000E+00	
    2.681946E-02	    1.398952E-03	    0.000000E+00	    0.000000E+00	    1.000000E-03	    1.000000E-03	    1.000000E+03	    0.000000E+00	    0.000000E+00	    0.000000E+00	    0.000000E+00	
    2.667343E-02	    9.272593E-04	    0.000000E+00	    0.000000E+00	    1.000000E-03	    1.000000E-03	    1.000000E+03	    0.000000E+00	    0.000000E+00	    0.000000E+00	    0.000000E+00	
    2.656803E-02	    6.039363E-04	    0.000000E+00	    0.000000E+00	    1.000000E-03	    1.000000E-03	    1.000000E+03	    0.000000E+00	    0.000000E+00	    0.000000E+00	    0.000000E+00	
    2.649510E-02	    3.876897E-04	    0.000000E+00	    0.000000E+00	    1.000000E-03	    1.000000E-03	    1.000000E+03	    0.000000E+00	    0.000000E+00	    0.000000E+00	    0.000000E+00	
    2.644632E-02	    2.461929E-04	    0.000000E+00	    0.000000E+00	    1.000000E-03	    1.000000E-03	    1.000000E+03	    0.000000E+00	    0.000000E+00	    0.000000E+00	    0.000000E+00	
    2.641453E-02	    1.553091E-04	    0.000000E+00	    0.000000E+00	    1.000000E-03	    1.000000E-03	    1.000000E+03	    0.000000E+00	    0.000000E+00	    0.000000E+00	    0.000000E+00	
    2.640323E-02	    1.232255E-04	    0.000000E+00	    0.000000E+00	    1.000000E-03	    1.000000E-03	    1.000000E+03	    0.000000E+00	    0.000000E+00	    0.000000E+00	    0.000000E+00	
   -2.640221E-02	    1.235826E-04	    0.000000E+00	    0.000000E+00	    1.000000E-03	    1.000000E-03	    1.000000E+03	    0.000000E+00	    0.000000E+00	    0.000000E+00	    0.000000E+00	
   -2.641324E-02	    1.557576E-04	    8.150134E-04	   -1.000000E+00	    1.642652E-03	    1.640000E-03	    7.900000E+02	    1.473312E-05	    3.682832E-03	    6.545437E+01	    2.269363E+05	
   -2.644427E-02	    2.468969E-04	    1.912347E-03	   -1.000000E+00	    1.643177E-03	    1.640000E-03	    7.900000E+02	    1.764882E-05	    2.103189E-03	    1.782013E+01	    5.026728E+05	
   -2.649187E-02	    3.887810E-04	    3.478769E-03	   -1.000000E+00	    1.645939E-03	    1.640000E-03	    7.900000E+02	    3.299181E-05	    2.963887E-03	    1.893157E+01	    6.699118E+05	
   -2.656298E-02	    6.055951E-04	    5.693597E-03	   -1.000000E+00	    1.650608E-03	    1.640000E-03	    7.900000E+02	    5.893549E-05	    3.897795E-03	    1.832865E+01	    7.377959E+05	
   -2.666564E-02	    9.297114E-04	    8.813726E-03	   -1.000000E+00	    1.657942E-03	    1.640000E-03	    7.900000E+02	    9.967533E-05	    4.730038E-03	    1.595920E+01	    7.471347E+05	
   -2.680764E-02	    1.402443E-03	    1.320181E-02	   -1.000000E+00	    1.669104E-03	    1.640000E-03	    7.900000E+02	    1.616878E-04	    5.468965E-03	    1.315233E+01	    7.316353E+05	
   -2.699381E-02	    2.073815E-03	    1.928260E-02	   -1.000000E+00	    1.685506E-03	    1.640000E-03	    7.900000E+02	    2.528123E-04	    6.113444E-03	    1.051098E+01	    7.053789E+05	
   -2.722159E-02	    3.000862E-03	    2.750589E-02	   -1.000000E+00	    1.708729E-03	    1.640000E-03	    7.900000E+02	    3.818262E-04	    6.657973E-03	    8.254445E+00	    6.716732E+05	
   -2.747499E-02	    4.243870E-03	    3.830715E-02	   -1.000000E+00	    1.740449E-03	    1.640000E-03	    7.900000E+02	    5.580499E-04	    7.108120E-03	    6.437335E+00	    6.308697E+05	
   -2.771775E-02	    5.859830E-03	    5.205254E-02	   -1.000000E+00	    1.782336E-03	    1.640000E-03	    7.900000E+02	    7.907575E-04	    7.482187E-03	    5.033654E+00	    5.845945E+05	
   -2.788747E-02	    7.892437E-03	    6.895622E-02	   -1.000000E+00	    1.835737E-03	    1.640000E-03	    7.900000E+02	    1.087430E-03	    7.794968E-03	    3.972802E+00	    5.361296E+05	
   -2.789385E-02	    1.035853E-02	    8.898053E-02	   -1.000000E+00	    1.901171E-03	    1.640000E-03	    7.900000E+02	    1.450949E-03	    8.050154E-03	    3.175600E+00	    4.889657E+05	
   -2.762484E-02	    1.323275E-02	    1.117316E-01	   -1.000000E+00	    1.977808E-03	    1.640000E-03	    7.900000E+02	    1.876710E-03	    8.245112E-03	    2.575524E+00	    4.456783E+05	
   -2.696359E-02	    1.643496E-02	    1.363955E-01	   -1.000000E+00	    2.063134E-03	    1.640000E-03	    7.900000E+02	    2.350747E-03	    8.377962E-03	    2.122954E+00	    4.076814E+05	
   -2.581502E-02	    1.982770E-02	    1.617797E-01	   -1.000000E+00	    2.153016E-03	    1.640000E-03	    7.900000E+02	    2.850087E-03	    8.452193E-03	    1.782175E+00	    3.754749E+05	
   -2.413503E-02	    2.323023E-02	    1.864897E-01	   -1.000000E+00	    2.242281E-03	    1.640000E-03	    7.900000E+02	    3.346004E-03	    8.477665E-03	    1.527199E+00	    3.489834E+05	
   -2.194995E-02	    2.644910E-02	    2.091952E-01	   -1.000000E+00	    2.325714E-03	    1.640000E-03	    7.900000E+02	    3.809521E-03	    8.468504E-03	    1.338482E+00	    3.278069E+05	
   -1.935601E-02	    2.931624E-02	    2.288847E-01	   -1.000000E+00	    2.399091E-03	    1.640000E-03	    7.900000E+02	    4.217172E-03	    8.439549E-03	    1.200844E+00	    3.113675E+05	
   -1.649765E-02	    3.171964E-02	    2.450102E-01	   -1.000000E+00	    2.459868E-03	    1.640000E-03	    7.900000E+02	    4.554821E-03	    8.403266E-03	    1.102286E+00	    2.989969E+05	
   -1.353451E-02	    3.361545E-02	    2.574901E-01	   -1.000000E+00	    2.507316E-03	    1.640000E-03	    7.900000E+02	    4.818422E-03	    8.368202E-03	    1.033306E+00	    2.900008E+05	
   -1.061085E-02	    3.502054E-02	    2.666035E-01	   -1.000000E+00	    2.542191E-03	    1.640000E-03	    7.900000E+02	    5.012175E-03	    8.338986E-03	    9.864382E-01	    2.837111E+05	
   -7.836802E-03	    3.599311E-02	    2.728422E-01	   -1.000000E+00	    2.566180E-03	    1.640000E-03	    7.900000E+02	    5.145443E-03	    8.317240E-03	    9.558843E-01	    2.795246E+05	
   -5.283016E-03	    3.661118E-02	    2.767741E-01	   -1.000000E+00	    2.581354E-03	    1.640000E-03	    7.900000E+02	    5.229743E-03	    8.302718E-03	    9.371947E-01	    2.769242E+05	
   -2.984871E-03	    3.695558E-02	    2.789489E-01	   -1.000000E+00	    2.589777E-03	    1.640000E-03	    7.900000E+02	    5.276538E-03	    8.294262E-03	    9.269920E-01	    2.754850E+05	
   -9.510277E-04	    3.709940E-02	    2.798445E-01	   -1.000000E+00	    2.593275E-03	    1.640000E-03	    7.900000E+02	    5.295974E-03	    8.290441E-03	    9.227393E-01	    2.748690E+05	
    9.510277E-04	    3.709940E-02	    2.798445E-01	   -1.000000E+00	    2.593275E-03	    1.640000E-03	    7.900000E+02	    5.295974E-03	    8.290441E-03	    9.227393E-01	    2.748690E+05	
    2.984871E-03	    3.695558E-02	    2.789489E-01	   -1.000000E+00	    2.589777E-03	    1.640000E-03	    7.900000E+02	    5.276538E-03	    8.294262E-03	    9.269920E-01	    2.754850E+05	
    5.283016E-03	    3.661118E-02	    2.767741E-01	   -1.000000E+00	    2.581354E-03	    1.640000E-03	    7.900000E+02	    5.229743E-03	    8.302718E-03	    9.371947E-01	    2.769242E+05	
    7.836802E-03	    3.599311E-02	    2.728422E-01	   -1.000000E+00	    2.566180E-03	    1.640000E-03	    7.900000E+02	    5.145443E-03	    8.317240E-03	    9.558843E-01	    2.795246E+05	
    1.061085E-02	    3.502054E-02	    2.666035E-01	   -1.000000E+00	    2.542191E-03	    1.640000E-03	    7.900000E+02	    5.012175E-03	    8.338986E-03	    9.864382E-01	    2.837111E+05	
    1.353451E-02	    3.361545E-02	    2.574901E-01	   -1.000000E+00	    2.507316E-03	    1.640000E-03	    7.900000E+02	    4.818422E-03	    8.368202E-03	    1.033306E+00	    2.900008E+05	
    1.649765E-02	    3.171964E-02	    2.450102E-01	   -1.000000E+00	    2.459868E-03	    1.640000E-03	    7.900000E+02	    4.554821E-03	    8.403266E-03	    1.102286E+00	    2.989969E+05	
    1.935601E-02	    2.931624E-02	    2.288847E-01	   -1.000000E+00	    2.399091E-03	    1.640000E-03	    7.900000E+02	    4.217172E-03	    8.439549E-03	    1.200844E+00	    3.113675E+05	
    2.194995E-02	    2.644910E-02	    2.091952E-01	   -1.000000E+00	    2.325714E-03	    1.640000E-03	    7.900000E+02	    3.809521E-03	    8.468504E-03	    1.338482E+00	    3.278069E+05	
    2.413503E-02	    2.323023E-02	    1.864897E-01	   -1.000000E+00	    2.242281E-03	    1.640000E-03	    7.900000E+02	    3.346004E-03	    8.477665E-03	    1.527199E+00	    3.489834E+05	
    2.581502E-02	    1.982770E-02	    1.617797E-01	   -1.000000E+00	    2.153016E-03	    1.640000E-03	    7.900000E+02	    2.850087E-03	    8.452193E-03	    1.782175E+00	    3.754749E+05	
    2.696359E-02	    1.643496E-02	    1.363955E-01	   -1.000000E+00	    2.063134E-03	    1.640000E-03	    7.900000E+02	    2.350747E-03	    8.377962E-03	    2.122954E+00	    4.076814E+05	
    2.762484E-02	    1.323275E-02	    1.117316E-01	   -1.000000E+00	    1.977808E-03	    1.640000E-03	    7.900000E+02	    1.876710E-03	    8.245112E-03	    2.575524E+00	    4.456783E+05	
    2.789385E-02	    1.035853E-02	    8.898053E-02	   -1.000000E+00	    1.901171E-03	    1.640000E-03	    7.900000E+02	    1.450949E-03	    8.050154E-03	    3.175600E+00	    4.889657E+05	
    2.788747E-02	    7.892437E-03	    6.895622E-02	   -1.000000E+00	    1.835737E-03	    1.640000E-03	    7.900000E+02	    1.087430E-03	    7.794968E-03	    3.972802E+00	    5.361296E+05	
    2.771775E-02	    5.859830E-03	    5.205254E-02	   -1.000000E+00	    1.782336E-03	    1.640000E-03	    7.900000E+02	    7.907575E-04	    7.482187E-03	    5.033654E+00	    5.845945E+05	
    2.747499E-02	    4.243870E-03	    3.830715E-02	   -1.000000E+00	    1.740449E-03	    1.640000E-03	    7.900000E+02	    5.580499E-04	    7.108120E-03	    6.437335E+00	    6.308697E+05	
    2.722159E-02	    3.000862E-03	    2.750589E-02	   -1.000000E+00	    1.708729E-03	    1.640000E-03	    7.900000E+02	    3.818262E-04	    6.657973E-03	    8.254445E+00	    6.716732E+05	
    2.699381E-02	    2.073815E-03	    1.928260E-02	   -1.000000E+00	    1.685506E-03	    1.640000E-03	    7.900000E+02	    2.528123E-04	    6.113444E-03	    1.051098E+01	    7.053789E+05	
    2.680764E-02	    1.402443E-03	    1.320181E-02	   -1.000000E+00	    1.669104E-03	    1.640000E-03	    7.900000E+02	    1.616878E-04	    5.468965E-03	    1.315233E+01	    7.316353E+05	
    2.666564E-02	    9.297114E-04	    8.813726E-03	   -1.000000E+00	    1.657942E-03	    1.640000E-03	    7.900000E+02	    9.967533E-05	    4.730038E-03	    1.595920E+01	    7.471347E+05	
    2.656298E-02	    6.055951E-04	    5.693597E-03	   -1.000000E+00	    1.650608E-03	    1.640000E-03	    7.900000E+02	    5.893549E-05	    3.897795E-03	    1.832865E+01	    7.377959E+05	
    2.649187E-02	    3.887810E-04	    3.478769E-03	   -1.000000E+00	    1.645939E-03	    1.640000E-03	    7.900000E+02	    3.299181E-05	    2.963887E-03	    1.893157E+01	    6.699118E+05	
    2.644427E-02	    2.468969E-04	    1.912347E-03	   -1.000000E+00	    1.643177E-03	    1.640000E-03	    7.900000E+02	    1.764882E-05	    2.103189E-03	    1.782013E+01	    5.026728E+05	
    2.641324E-02	    1.557576E-04	    8.150134E-04	   -1.000000E+00	    1.642652E-03	    1.640000E-03	    7.900000E+02	    1.473312E-05	    3.682832E-03	    6.545437E+01	    2.269363E+05	
    2.640221E-02	    1.235826E-04	    0.000000E+00	    0.000000E+00	    1.000000E-03	    1.000000E-03	    1.000000E+03	    0.000000E+00	    0.000000E+00	    0.000000E+00	    0.000000E+00	
   -2.639982E-02	    1.243764E-04	    0.000000E+00	    0.000000E+00	    1.000000E-03	    1.000000E-03	    1.000000E+03	    0.000000E+00	    0.000000E+00	    0.000000E+00	    0.000000E+00	
   -2.641024E-02	    1.567544E-04	    1.944063E-03	   -1.000000E+00	    1.705666E-03	    1.640000E-03	    7.900000E+02	    3.648129E-04	    3.655463E-03	    2.604259E+00	    1.261998E+05	
   -2.643950E-02	    2.484604E-04	    4.604176E-03	   -1.000000E+00	    1.643177E-03	    1.640000E-03	    7.900000E+02	    1.765105E-05	    1.747933E-03	    1.230689E+01	    2.879504E+05	
   -2.648434E-02	    3.912024E-04	    8.367044E-03	   -1.000000E+00	    1.645853E-03	    1.640000E-03	    7.900000E+02	    3.251517E-05	    2.298526E-03	    1.155267E+01	    3.825939E+05	
   -2.655123E-02	    6.092704E-04	    1.366887E-02	   -1.000000E+00	    1.650969E-03	    1.640000E-03	    7.900000E+02	    6.093940E-05	    2.893745E-03	    9.769941E+00	    4.190782E+05	
   -2.664754E-02	    9.351323E-04	    2.109375E-02	   -1.000000E+00	    1.660412E-03	    1.640000E-03	    7.900000E+02	    1.133977E-04	    3.440078E-03	    7.419968E+00	    4.194720E+05	
   -2.678020E-02	    1.410133E-03	    3.142823E-02	   -1.000000E+00	    1.678911E-03	    1.640000E-03	    7.900000E+02	    2.161720E-04	    4.047275E-03	    5.387604E+00	    3.999308E+05	
   -2.695297E-02	    2.084165E-03	    4.548160E-02	   -1.000000E+00	    1.716716E-03	    1.640000E-03	    7.900000E+02	    4.261997E-04	    4.832599E-03	    3.895991E+00	    3.647127E+05	
   -2.716203E-02	    3.013802E-03	    6.385551E-02	   -1.000000E+00	    1.792290E-03	    1.640000E-03	    7.900000E+02	    8.460547E-04	    5.866754E-03	    2.892457E+00	    3.163210E+05	
   -2.739005E-02	    4.258309E-03	    8.672029E-02	   -1.000000E+00	    1.928578E-03	    1.640000E-03	    7.900000E+02	    1.603212E-03	    7.113916E-03	    2.244379E+00	    2.611079E+05	
   -2.759957E-02	    5.872855E-03	    1.137726E-01	   -1.000000E+00	    2.142133E-03	    1.640000E-03	    7.900000E+02	    2.789626E-03	    8.456195E-03	    1.822526E+00	    2.069440E+05	
   -2.772756E-02	    7.898299E-03	    1.443587E-01	   -1.000000E+00	    2.437672E-03	    1.640000E-03	    7.900000E+02	    4.431510E-03	    9.775004E-03	    1.533034E+00	    1.595226E+05	
   -2.768430E-02	    1.034769E-02	    1.775871E-01	   -1.000000E+00	    2.810372E-03	    1.640000E-03	    7.900000E+02	    6.502067E-03	    1.098479E-02	    1.319476E+00	    1.211895E+05	
   -2.736029E-02	    1.319140E-02	    2.123696E-01	   -1.000000E+00	    3.247594E-03	    1.640000E-03	    7.900000E+02	    8.931077E-03	    1.202801E-02	    1.151737E+00	    9.186023E+04	
   -2.664362E-02	    1.634572E-02	    2.474397E-01	   -1.000000E+00	    3.728869E-03	    1.640000E-03	    7.900000E+02	    1.160483E-02	    1.287139E-02	    1.015037E+00	    7.026135E+04	
   -2.544635E-02	    1.967185E-02	    2.814134E-01	   -1.000000E+00	    4.227021E-03	    1.640000E-03	    7.900000E+02	    1.437234E-02	    1.350740E-02	    9.025797E-01	    5.477306E+04	
   -2.373219E-02	    2.299129E-02	    3.129279E-01	   -1.000000E+00	    4.711864E-03	    1.640000E-03	    7.900000E+02	    1.706591E-02	    1.395286E-02	    8.110848E-01	    4.386801E+04	
   -2.153377E-02	    2.611664E-02	    3.408356E-01	   -1.000000E+00	    5.155694E-03	    1.640000E-03	    7.900000E+02	    1.953163E-02	    1.424180E-02	    7.383476E-01	    3.628635E+04	
   -1.895006E-02	    2.888837E-02	    3.643815E-01	   -1.000000E+00	    5.538320E-03	    1.640000E-03	    7.900000E+02	    2.165733E-02	    1.441506E-02	    6.821773E-01	    3.106582E+04	
   -1.612393E-02	    3.120304E-02	    3.832866E-01	   -1.000000E+00	    5.849614E-03	    1.640000E-03	    7.900000E+02	    2.338675E-02	    1.451091E-02	    6.401608E-01	    2.750533E+04	
   -1.321003E-02	    3.302327E-02	    3.977143E-01	   -1.000000E+00	    6.089002E-03	    1.640000E-03	    7.900000E+02	    2.471668E-02	    1.455967E-02	    6.097930E-01	    2.510785E+04	
   -1.034610E-02	    3.436917E-02	    4.081488E-01	   -1.000000E+00	    6.262882E-03	    1.640000E-03	    7.900000E+02	    2.568268E-02	    1.458228E-02	    5.886816E-01	    2.352536E+04	
   -7.635971E-03	    3.529918E-02	    4.152454E-01	   -1.000000E+00	    6.381449E-03	    1.640000E-03	    7.900000E+02	    2.634138E-02	    1.459166E-02	    5.746991E-01	    2.251460E+04	
   -5.145366E-03	    3.588954E-02	    4.196986E-01	   -1.000000E+00	    6.456022E-03	    1.640000E-03	    7.900000E+02	    2.675568E-02	    1.459493E-02	    5.660540E-01	    2.190468E+04	
   -2.906387E-03	    3.621827E-02	    4.221539E-01	   -1.000000E+00	    6.497291E-03	    1.640000E-03	    7.900000E+02	    2.698495E-02	    1.459564E-02	    5.612994E-01	    2.157452E+04	
   -9.259268E-04	    3.635550E-02	    4.231613E-01	   -1.000000E+00	    6.514404E-03	    1.640000E-03	    7.900000E+02	    2.708002E-02	    1.459540E-02	    5.593099E-01	    2.143776E+04	
    9.259268E-04	    3.635550E-02	    4.231613E-01	   -1.000000E+00	    6.514404E-03	    1.640000E-03	    7.900000E+02	    2.708002E-02	    1.459540E-02	    5.593099E-01	    2.143776E+04	
    2.906387E-03	    3.621827E-02	    4.221539E-01	   -1.000000E+00	    6.497291E-03	    1.640000E-03	    7.900000E+02	    2.698495E-02	    1.459564E-02	    5.612994E-01	    2.157452E+04	
    5.145366E-03	    3.588954E-02	    4.196986E-01	   -1.000000E+00	    6.456022E-03	    1.640000E-03	    7.900000E+02	    2.675568E-02	    1.459493E-02	    5.660540E-01	    2.190468E+04	
    7.635971E-03	    3.529918E-02	    4.152454E-01	   -1.000000E+00	    6.381449E-03	    1.640000E-03	    7.900000E+02	    2.634138E-02	    1.459166E-02	    5.746991E-01	    2.251460E+04	
    1.034610E-02	    3.436917E-02	    4.081488E-01	   -1.000000E+00	    6.262882E-03	    1.640000E-03	    7.900000E+02	    2.568268E-02	    1.458228E-02	    5.886816E-01	    2.352536E+04	
    1.321003E-02	    3.302327E-02	    3.977143E-01	   -1.000000E+00	    6.089002E-03	    1.640000E-03	    7.900000E+02	    2.471668E-02	    1.455967E-02	    6.097930E-01	    2.510785E+04	
    1.612393E-02	    3.120304E-02	    3.832866E-01	   -1.000000E+00	    5.849614E-03	    1.640000E-03	    7.900000E+02	    2.338675E-02	    1.451091E-02	    6.401608E-01	    2.750533E+04	
    1.895006E-02	    2.888837E-02	    3.643815E-01	   -1.000000E+00	    5.538320E-03	    1.640000E-03	    7.900000E+02	    2.165733E-02	    1.441506E-02	    6.821773E-01	    3.106582E+04	
    2.153377E-02	    2.611664E-02	    3.408356E-01	   -1.000000E+00	    5.155694E-03	    1.640000E-03	    7.900000E+02	    1.953163E-02	    1.424180E-02	    7.383476E-01	    3.628635E+04	
    2.373219E-02	    2.299129E-02	    3.129279E-01	   -1.000000E+00	    4.711864E-03	    1.640000E-03	    7.900000E+02	    1.706591E-02	    1.395286E-02	    8.110848E-01	    4.386801E+04	
    2.544635E-02	    1.967185E-02	    2.814134E-01	   -1.000000E+00	    4.227021E-03	    1.640000E-03	    7.900000E+02	    1.437234E-02	    1.350740E-02	    9.025797E-01	    5.477306E+04	
    2.664362E-02	    1.634572E-02	    2.474397E-01	   -1.000000E+00	    3.728869E-03	    1.640000E-03	    7.900000E+02	    1.160483E-02	    1.287139E-02	    1.015037E+00	    7.026135E+04	
    2.736029E-02	    1.319140E-02	    2.123696E-01	   -1.000000E+00	    3.247594E-03	    1.640000E-03	    7.900000E+02	    8.931077E-03	    1.202801E-02	    1.151737E+00	    9.186023E+04	
    2.768430E-02	    1.034769E-02	    1.775871E-01	   -1.000000E+00	    2.810372E-03	    1.640000E-03	    7.900000E+02	    6.502067E-03	    1.098479E-02	    1.319476E+00	    1.211895E+05	
    2.772756E-02	    7.898299E-03	    1.443587E-01	   -1.000000E+00	    2.437672E-03	    1.640000E-03	    7.900000E+02	    4.431510E-03	    9.775004E-03	    1.533034E+00	    1.595226E+05	
    2.759957E-02	    5.872855E-03	    1.137726E-01	   -1.000000E+00	    2.142133E-03	    1.640000E-03	    7.900000E+02	    2.789626E-03	    8.456195E-03	    1.822526E+00	    2.069440E+05	
    2.739005E-02	    4.258309E-03	    8.672029E-02	   -1.000000E+00	    1.928578E-03	    1.640000E-03	    7.900000E+02	    1.603212E-03	    7.113916E-03	    2.244379E+00	    2.611079E+05	
    2.716203E-02	    3.013802E-03	    6.385551E-02	   -1.000000E+00	    1.792290E-03	    1.640000E-03	    7.900000E+02	    8.460547E-04	    5.866754E-03	    2.892457E+00	    3.163210E+05	
    2.695297E-02	    2.084165E-03	    4.548160E-02	   -1.000000E+00	    1.716716E-03	    1.640000E-03	    7.900000E+02	    4.261997E-04	    4.832599E-03	    3.895991E+00	    3.647127E+05	
    2.678020E-02	    1.410133E-03	    3.142823E-02	   -1.000000E+00	    1.678911E-03	    1.640000E-03	    7.900000E+02	    2.161720E-04	    4.047275E-03	    5.387604E+00	    3.999308E+05	
    2.664754E-02	    9.351323E-04	    2.109375E-02	   -1.000000E+00	    1.660412E-03	    1.640000E-03	    7.900000E+02	    1.133977E-04	    3.440078E-03	    7.419968E+00	    4.194720E+05	
    2.655123E-02	    6.092704E-04	    1.366887E-02	   -1.000000E+00	    1.650969E-03	    1.640000E-03	    7.900000E+02	    6.093940E-05	    2.893745E-03	    9.769941E+00	    4.190782E+05	
    2.648434E-02	    3.912024E-04	    8.367044E-03	   -1.000000E+00	    1.645853E-03	    1.640000E-03	    7.900000E+02	    3.251517E-05	    2.298526E-03	    1.155267E+01	    3.825939E+05	
    2.643950E-02	    2.484604E-04	    4.604176E-03	   -1.000000E+00	    1.643177E-03	    1.640000E-03	    7.900000E+02	    1.765105E-05	    1.747933E-03	    1.230689E+01	    2.879504E+05	
    2.641024E-02	    1.567544E-04	    1.944063E-03	   -1.000000E+00	    1.705666E-03	    1.640000E-03	    7.900000E+02	    3.648129E-04	    3.655463E-03	    2.604259E+00	    1.261998E+05	
    2.639982E-02	    1.243764E-04	    0.000000E+00	    0.000000E+00	    1.000000E-03	    1.000000E-03	    1.000000E+03	    0.000000E+00	    0.000000E+00	    0.000000E+00	    0.000000E+00	
   -2.639668E-02	    1.253463E-04	    0.000000E+00	    0.000000E+00	    1.000000E-03	    1.000000E-03	    1.000000E+03	    0.000000E+00	    0.000000E+00	    0.000000E+00	    0.000000E+00	
   -2.640627E-02	    1.579719E-04	    3.390202E-03	   -1.000000E+00	    1.705530E-03	    1.640000E-03	    7.900000E+02	    3.640576E-04	    3.641322E-03	    2.589510E+00	    1.271144E+05	