Title="Fields"
Variables="X""Y""Velocity""Phi""Effective Viscosity""Dynamic Viscosity""Density"
Zone I=52 J=52 F=POINT
   -1.193516E-02	    5.806814E-05	    0.000000E+00	    0.000000E+00	    1.000000E-03	    1.000000E-03	    1.000000E+03	
   -1.193803E-02	    7.317331E-05	    0.000000E+00	    0.000000E+00	    1.000000E-03	    1.000000E-03	    1.000000E+03	
   -1.194605E-02	    1.159313E-04	    0.000000E+00	    0.000000E+00	    1.000000E-03	    1.000000E-03	    1.000000E+03	
   -1.195819E-02	    1.824107E-04	    0.000000E+00	    0.000000E+00	    1.000000E-03	    1.000000E-03	    1.000000E+03	
   -1.197598E-02	    2.837978E-04	    0.000000E+00	    0.000000E+00	    1.000000E-03	    1.000000E-03	    1.000000E+03	
   -1.200085E-02	    4.349113E-04	    0.000000E+00	    0.000000E+00	    1.000000E-03	    1.000000E-03	    1.000000E+03	
   -1.203351E-02	    6.543515E-04	    0.000000E+00	    0.000000E+00	    1.000000E-03	    1.000000E-03	    1.000000E+03	
   -1.207266E-02	    9.640530E-04	    0.000000E+00	    0.000000E+00	    1.000000E-03	    1.000000E-03	    1.000000E+03	
   -1.211321E-02	    1.387983E-03	    0.000000E+00	    0.000000E+00	    1.000000E-03	    1.000000E-03	    1.000000E+03	
   -1.214396E-02	    1.949742E-03	    0.000000E+00	    0.000000E+00	    1.000000E-03	    1.000000E-03	    1.000000E+03	
   -1.214535E-02	    2.668883E-03	    0.000000E+00	    0.000000E+00	    1.000000E-03	    1.000000E-03	    1.000000E+03	
   -1.208827E-02	    3.555974E-03	    0.000000E+00	    0.000000E+00	    1.000000E-03	    1.000000E-03	    1.000000E+03	
   -1.193527E-02	    4.606961E-03	    0.000000E+00	    0.000000E+00	    1.000000E-03	    1.000000E-03	    1.000000E+03	
   -1.164532E-02	    5.798212E-03	    0.000000E+00	    0.000000E+00	    1.000000E-03	    1.000000E-03	    1.000000E+03	
   -1.118227E-02	    7.084566E-03	    0.000000E+00	    0.000000E+00	    1.000000E-03	    1.000000E-03	    1.000000E+03	
   -1.052514E-02	    8.402723E-03	    0.000000E+00	    0.000000E+00	    1.000000E-03	    1.000000E-03	    1.000000E+03	
   -9.676296E-03	    9.680711E-03	    0.000000E+00	    0.000000E+00	    1.000000E-03	    1.000000E-03	    1.000000E+03	
   -8.663743E-03	    1.085114E-02	    0.000000E+00	    0.000000E+00	    1.000000E-03	    1.000000E-03	    1.000000E+03	
   -7.535784E-03	    1.186351E-02	    0.000000E+00	    0.000000E+00	    1.000000E-03	    1.000000E-03	    1.000000E+03	
   -6.350407E-03	    1.269112E-02	    0.000000E+00	    0.000000E+00	    1.000000E-03	    1.000000E-03	    1.000000E+03	
   -5.163805E-03	    1.333087E-02	    0.000000E+00	    0.000000E+00	    1.000000E-03	    1.000000E-03	    1.000000E+03	
   -4.022021E-03	    1.379778E-02	    0.000000E+00	    0.000000E+00	    1.000000E-03	    1.000000E-03	    1.000000E+03	
   -2.957213E-03	    1.411743E-02	    0.000000E+00	    0.000000E+00	    1.000000E-03	    1.000000E-03	    1.000000E+03	
   -1.987883E-03	    1.431908E-02	    0.000000E+00	    0.000000E+00	    1.000000E-03	    1.000000E-03	    1.000000E+03	
   -1.121367E-03	    1.443094E-02	    0.000000E+00	    0.000000E+00	    1.000000E-03	    1.000000E-03	    1.000000E+03	
   -3.570501E-04	    1.447755E-02	    0.000000E+00	    0.000000E+00	    1.000000E-03	    1.000000E-03	    1.000000E+03	
    3.570501E-04	    1.447755E-02	    0.000000E+00	    0.000000E+00	    1.000000E-03	    1.000000E-03	    1.000000E+03	
    1.121367E-03	    1.443094E-02	    0.000000E+00	    0.000000E+00	    1.000000E-03	    1.000000E-03	    1.000000E+03	
    1.987883E-03	    1.431908E-02	    0.000000E+00	    0.000000E+00	    1.000000E-03	    1.000000E-03	    1.000000E+03	
    2.957213E-03	    1.411743E-02	    0.000000E+00	    0.000000E+00	    1.000000E-03	    1.000000E-03	    1.000000E+03	
    4.022021E-03	    1.379778E-02	    0.000000E+00	    0.000000E+00	    1.000000E-03	    1.000000E-03	    1.000000E+03	
    5.163805E-03	    1.333087E-02	    0.000000E+00	    0.000000E+00	    1.000000E-03	    1.000000E-03	    1.000000E+03	
    6.350407E-03	    1.269112E-02	    0.000000E+00	    0.000000E+00	    1.000000E-03	    1.000000E-03	    1.000000E+03	
    7.535784E-03	    1.186351E-02	    0.000000E+00	    0.000000E+00	    1.000000E-03	    1.000000E-03	    1.000000E+03	
    8.663743E-03	    1.085114E-02	    0.000000E+00	    0.000000E+00	    1.000000E-03	    1.000000E-03	    1.000000E+03	
    9.676296E-03	    9.680711E-03	    0.000000E+00	    0.000000E+00	    1.000000E-03	    1.000000E-03	    1.000000E+03	
    1.052514E-02	    8.402723E-03	    0.000000E+00	    0.000000E+00	    1.000000E-03	    1.000000E-03	    1.000000E+03	
    1.118227E-02	    7.084566E-03	    0.000000E+00	    0.000000E+00	    1.000000E-03	    1.000000E-03	    1.000000E+03	
    1.164532E-02	    5.798212E-03	    0.000000E+00	    0.000000E+00	    1.000000E-03	    1.000000E-03	    1.000000E+03	
    1.193527E-02	    4.606961E-03	    0.000000E+00	    0.000000E+00	    1.000000E-03	    1.000000E-03	    1.000000E+03	
    1.208827E-02	    3.555974E-03	    0.000000E+00	    0.000000E+00	    1.000000E-03	    1.000000E-03	    1.000000E+03	
    1.214535E-02	    2.668883E-03	    0.000000E+00	    0.000000E+00	    1.000000E-03	    1.000000E-03	    1.000000E+03	
    1.214396E-02	    1.949742E-03	    0.000000E+00	    0.000000E+00	    1.000000E-03	    1.000000E-03	    1.000000E+03	
    1.211321E-02	    1.387983E-03	    0.000000E+00	    0.000000E+00	    1.000000E-03	    1.000000E-03	    1.000000E+03	
    1.207266E-02	    9.640530E-04	    0.000000E+00	    0.000000E+00	    1.000000E-03	    1.000000E-03	    1.000000E+03	
    1.203351E-02	    6.543515E-04	    0.000000E+00	    0.000000E+00	    1.000000E-03	    1.000000E-03	    1.000000E+03	
    1.200085E-02	    4.349113E-04	    0.000000E+00	    0.000000E+00	    1.000000E-03	    1.000000E-03	    1.000000E+03	
    1.197598E-02	    2.837978E-04	    0.000000E+00	    0.000000E+00	    1.000000E-03	    1.000000E-03	    1.000000E+03	
    1.195819E-02	    1.824107E-04	    0.000000E+00	    0.000000E+00	    1.000000E-03	    1.000000E-03	    1.000000E+03	
    1.194605E-02	    1.159313E-04	    0.000000E+00	    0.000000E+00	    1.000000E-03	    1.000000E-03	    1.000000E+03	
    1.193803E-02	    7.317331E-05	    0.000000E+00	    0.000000E+00	    1.000000E-03	    1.000000E-03	    1.000000E+03	
    1.193516E-02	    5.806814E-05	    0.000000E+00	    0.000000E+00	    1.000000E-03	    1.000000E-03	    1.000000E+03	
   -1.193472E-02	    5.815109E-05	    0.000000E+00	    0.000000E+00	    1.000000E-03	    1.000000E-03	    1.000000E+03	
   -1.193747E-02	    7.327713E-05	    2.310041E-05	   -1.000000E+00	    1.000000E-03	    1.600000E-03	    8.010000E+02	
   -1.194516E-02	    1.160926E-04	    7.376221E-05	   -1.000000E+00	    1.000000E-03	    1.600000E-03	    8.010000E+02	
   -1.195679E-02	    1.826567E-04	    1.389763E-04	   -1.000000E+00	    1.000000E-03	    1.600000E-03	    8.010000E+02	
   -1.197380E-02	    2.841621E-04	    2.302067E-04	   -1.000000E+00	    1.000000E-03	    1.600000E-03	    8.010000E+02	
   -1.199751E-02	    4.354273E-04	    3.612449E-04	   -1.000000E+00	    1.000000E-03	    1.600000E-03	    8.010000E+02	
   -1.202846E-02	    6.550358E-04	    5.486271E-04	   -1.000000E+00	    1.000000E-03	    1.600000E-03	    8.010000E+02	
   -1.206520E-02	    9.648695E-04	    8.114428E-04	   -1.000000E+00	    1.000000E-03	    1.600000E-03	    8.010000E+02	
   -1.210244E-02	    1.388781E-03	    1.170338E-03	   -1.000000E+00	    1.000000E-03	    1.600000E-03	    8.010000E+02	
   -1.212879E-02	    1.950162E-03	    1.645528E-03	   -1.000000E+00	    1.000000E-03	    1.600000E-03	    8.010000E+02	
   -1.212460E-02	    2.668228E-03	    2.253684E-03	   -1.000000E+00	    1.000000E-03	    1.600000E-03	    8.010000E+02	
   -1.206077E-02	    3.553084E-03	    3.003767E-03	   -1.000000E+00	    1.000000E-03	    1.600000E-03	    8.010000E+02	
   -1.190011E-02	    4.600123E-03	    3.892266E-03	   -1.000000E+00	    1.000000E-03	    1.600000E-03	    8.010000E+02	
   -1.160217E-02	    5.785198E-03	    4.899045E-03	   -1.000000E+00	    1.000000E-03	    1.600000E-03	    8.010000E+02	
   -1.113169E-02	    7.062859E-03	    5.985737E-03	   -1.000000E+00	    1.000000E-03	    1.600000E-03	    8.010000E+02	
   -1.046872E-02	    8.369934E-03	    7.098663E-03	   -1.000000E+00	    1.000000E-03	    1.600000E-03	    8.010000E+02	
   -9.616589E-03	    9.635079E-03	    8.176910E-03	   -1.000000E+00	    1.000000E-03	    1.600000E-03	    8.010000E+02	
   -8.603865E-03	    1.079194E-02	    9.163576E-03	   -1.000000E+00	    1.000000E-03	    1.600000E-03	    8.010000E+02	
   -7.478880E-03	    1.179119E-02	    1.001619E-02	   -1.000000E+00	    1.000000E-03	    1.600000E-03	    8.010000E+02	
   -6.299135E-03	    1.260711E-02	    1.071248E-02	   -1.000000E+00	    1.000000E-03	    1.600000E-03	    8.010000E+02	
   -5.120030E-03	    1.323724E-02	    1.125011E-02	   -1.000000E+00	    1.000000E-03	    1.600000E-03	    8.010000E+02	
   -3.986742E-03	    1.369680E-02	    1.164200E-02	   -1.000000E+00	    1.000000E-03	    1.600000E-03	    8.010000E+02	
   -2.930678E-03	    1.401126E-02	    1.190986E-02	   -1.000000E+00	    1.000000E-03	    1.600000E-03	    8.010000E+02	
   -1.969794E-03	    1.420957E-02	    1.207846E-02	   -1.000000E+00	    1.000000E-03	    1.600000E-03	    8.010000E+02	
   -1.111084E-03	    1.431956E-02	    1.217156E-02	   -1.000000E+00	    1.000000E-03	    1.600000E-03	    8.010000E+02	
   -3.537653E-04	    1.436539E-02	    1.220979E-02	   -1.000000E+00	    1.000000E-03	    1.600000E-03	    8.010000E+02	
    3.537653E-04	    1.436539E-02	    1.220979E-02	   -1.000000E+00	    1.000000E-03	    1.600000E-03	    8.010000E+02	
    1.111084E-03	    1.431956E-02	    1.217156E-02	   -1.000000E+00	    1.000000E-03	    1.600000E-03	    8.010000E+02	
    1.969794E-03	    1.420957E-02	    1.207846E-02	   -1.000000E+00	    1.000000E-03	    1.600000E-03	    8.010000E+02	
    2.930678E-03	    1.401126E-02	    1.190986E-02	   -1.000000E+00	    1.000000E-03	    1.600000E-03	    8.010000E+02	
    3.986742E-03	    1.369680E-02	    1.164200E-02	   -1.000000E+00	    1.000000E-03	    1.600000E-03	    8.010000E+02	
    5.120030E-03	    1.323724E-02	    1.125011E-02	   -1.000000E+00	    1.000000E-03	    1.600000E-03	    8.010000E+02	
    6.299135E-03	    1.260711E-02	    1.071248E-02	   -1.000000E+00	    1.000000E-03	    1.600000E-03	    8.010000E+02	
    7.478880E-03	    1.179119E-02	    1.001619E-02	   -1.000000E+00	    1.000000E-03	    1.600000E-03	    8.010000E+02	
    8.603865E-03	    1.079194E-02	    9.163576E-03	   -1.000000E+00	    1.000000E-03	    1.600000E-03	    8.010000E+02	
    9.616589E-03	    9.635079E-03	    8.176910E-03	   -1.000000E+00	    1.000000E-03	    1.600000E-03	    8.010000E+02	
    1.046872E-02	    8.369934E-03	    7.098663E-03	   -1.000000E+00	    1.000000E-03	    1.600000E-03	    8.010000E+02	
    1.113169E-02	    7.062859E-03	    5.985737E-03	   -1.000000E+00	    1.000000E-03	    1.600000E-03	    8.010000E+02	
    1.160217E-02	    5.785198E-03	    4.899045E-03	   -1.000000E+00	    1.000000E-03	    1.600000E-03	    8.010000E+02	
    1.190011E-02	    4.600123E-03	    3.892266E-03	   -1.000000E+00	    1.000000E-03	    1.600000E-03	    8.010000E+02	
    1.206077E-02	    3.553084E-03	    3.003767E-03	   -1.000000E+00	    1.000000E-03	    1.600000E-03	    8.010000E+02	
    1.212460E-02	    2.668228E-03	    2.253684E-03	   -1.000000E+00	    1.000000E-03	    1.600000E-03	    8.010000E+02	
    1.212879E-02	    1.950162E-03	    1.645528E-03	   -1.000000E+00	    1.000000E-03	    1.600000E-03	    8.010000E+02	
    1.210244E-02	    1.388781E-03	    1.170338E-03	   -1.000000E+00	    1.000000E-03	    1.600000E-03	    8.010000E+02	
    1.206520E-02	    9.648695E-04	    8.114428E-04	   -1.000000E+00	    1.000000E-03	    1.600000E-03	    8.010000E+02	
    1.202846E-02	    6.550358E-04	    5.486271E-04	   -1.000000E+00	    1.000000E-03	    1.600000E-03	    8.010000E+02	
    1.199751E-02	    4.354273E-04	    3.612449E-04	   -1.000000E+00	    1.000000E-03	    1.600000E-03	    8.010000E+02	
    1.197380E-02	    2.841621E-04	    2.302067E-04	   -1.000000E+00	    1.000000E-03	    1.600000E-03	    8.010000E+02	
    1.195679E-02	    1.826567E-04	    1.389763E-04	   -1.000000E+00	    1.000000E-03	    1.600000E-03	    8.010000E+02	
    1.194516E-02	    1.160926E-04	    7.376221E-05	   -1.000000E+00	    1.000000E-03	    1.600000E-03	    8.010000E+02	
    1.193747E-02	    7.327713E-05	    2.310041E-05	   -1.000000E+00	    1.000000E-03	    1.600000E-03	    8.010000E+02	
    1.193472E-02	    5.815109E-05	    0.000000E+00	    0.000000E+00	    1.000000E-03	    1.000000E-03	    1.000000E+03	
   -1.193369E-02	    5.833001E-05	    0.000000E+00	    0.000000E+00	    1.000000E-03	    1.000000E-03	    1.000000E+03	
   -1.193617E-02	    7.350093E-05	    7.653035E-05	   -1.000000E+00	    1.000000E-03	    1.600000E-03	    8.010000E+02	
   -1.194310E-02	    1.164398E-04	    2.443874E-04	   -1.000000E+00	    1.000000E-03	    1.600000E-03	    8.010000E+02	
   -1.195355E-02	    1.831848E-04	    4.604133E-04	   -1.000000E+00	    1.000000E-03	    1.600000E-03	    8.010000E+02	
   -1.196875E-02	    2.849407E-04	    7.625219E-04	   -1.000000E+00	    1.000000E-03	    1.600000E-03	    8.010000E+02	
   -1.198975E-02	    4.365224E-04	    1.196249E-03	   -1.000000E+00	    1.000000E-03	    1.600000E-03	    8.010000E+02	
   -1.201677E-02	    6.564691E-04	    1.816051E-03	   -1.000000E+00	    1.000000E-03	    1.600000E-03	    8.010000E+02	
   -1.204793E-02	    9.665363E-04	    2.684533E-03	   -1.000000E+00	    1.000000E-03	    1.600000E-03	    8.010000E+02	
   -1.207752E-02	    1.390306E-03	    3.868951E-03	   -1.000000E+00	    1.000000E-03	    1.600000E-03	    8.010000E+02	
   -1.209376E-02	    1.950679E-03	    5.434392E-03	   -1.000000E+00	    1.000000E-03	    1.600000E-03	    8.010000E+02	
   -1.207673E-02	    2.666100E-03	    7.433292E-03	   -1.000000E+00	    1.000000E-03	    1.600000E-03	    8.010000E+02	
   -1.199744E-02	    3.545608E-03	    9.891627E-03	   -1.000000E+00	    1.000000E-03	    1.600000E-03	    8.010000E+02	
   -1.181934E-02	    4.583352E-03	    1.279357E-02	   -1.000000E+00	    1.000000E-03	    1.600000E-03	    8.010000E+02	
   -1.150331E-02	    5.754046E-03	    1.606875E-02	   -1.000000E+00	    1.000000E-03	    1.600000E-03	    8.010000E+02	
   -1.101611E-02	    7.011631E-03	    1.958837E-02	   -1.000000E+00	    1.000000E-03	    1.600000E-03	    8.010000E+02	
   -1.034015E-02	    8.293289E-03	    2.317635E-02	   -1.000000E+00	    1.000000E-03	    1.600000E-03	    8.010000E+02	
   -9.480880E-03	    9.529159E-03	    2.663657E-02	   -1.000000E+00	    1.000000E-03	    1.600000E-03	    8.010000E+02	
   -8.468099E-03	    1.065525E-02	    2.978918E-02	   -1.000000E+00	    1.000000E-03	    1.600000E-03	    8.010000E+02	
   -7.350127E-03	    1.162485E-02	    3.250295E-02	   -1.000000E+00	    1.000000E-03	    1.600000E-03	    8.010000E+02	
   -6.183326E-03	    1.241448E-02	    3.471190E-02	   -1.000000E+00	    1.000000E-03	    1.600000E-03	    8.010000E+02	
   -5.021285E-03	    1.302301E-02	    3.641306E-02	   -1.000000E+00	    1.000000E-03	    1.600000E-03	    8.010000E+02	
   -3.907237E-03	    1.346612E-02	    3.765059E-02	   -1.000000E+00	    1.000000E-03	    1.600000E-03	    8.010000E+02	
   -2.870919E-03	    1.376898E-02	    3.849523E-02	   -1.000000E+00	    1.000000E-03	    1.600000E-03	    8.010000E+02	
   -1.929071E-03	    1.395983E-02	    3.902630E-02	   -1.000000E+00	    1.000000E-03	    1.600000E-03	    8.010000E+02	
   -1.087940E-03	    1.406564E-02	    3.931934E-02	   -1.000000E+00	    1.000000E-03	    1.600000E-03	    8.010000E+02	
   -3.463732E-04	    1.410971E-02	    3.943957E-02	   -1.000000E+00	    1.000000E-03	    1.600000E-03	    8.010000E+02	
    3.463732E-04	    1.410971E-02	    3.943957E-02	   -1.000000E+00	    1.000000E-03	    1.600000E-03	    8.010000E+02	
    1.087940E-03	    1.406564E-02	    3.931934E-02	   -1.000000E+00	    1.000000E-03	    1.600000E-03	    8.010000E+02	
    1.929071E-03	    1.395983E-02	    3.902630E-02	   -1.000000E+00	    1.000000E-03	    1.600000E-03	    8.010000E+02	
    2.870919E-03	    1.376898E-02	    3.849523E-02	   -1.000000E+00	    1.000000E-03	    1.600000E-03	    8.010000E+02	
    3.907237E-03	    1.346612E-02	    3.765059E-02	   -1.000000E+00	    1.000000E-03	    1.600000E-03	    8.010000E+02	
    5.021285E-03	    1.302301E-02	    3.641306E-02	   -1.000000E+00	    1.000000E-03	    1.600000E-03	    8.010000E+02	
    6.183326E-03	    1.241448E-02	    3.471190E-02	   -1.000000E+00	    1.000000E-03	    1.600000E-03	    8.010000E+02	
    7.350127E-03	    1.162485E-02	    3.250295E-02	   -1.000000E+00	    1.000000E-03	    1.600000E-03	    8.010000E+02	
    8.468099E-03	    1.065525E-02	    2.978918E-02	   -1.000000E+00	    1.000000E-03	    1.600000E-03	    8.010000E+02	
    9.480880E-03	    9.529159E-03	    2.663657E-02	   -1.000000E+00	    1.000000E-03	    1.600000E-03	    8.010000E+02	
    1.034015E-02	    8.293289E-03	    2.317635E-02	   -1.000000E+00	    1.000000E-03	    1.600000E-03	    8.010000E+02	
    1.101611E-02	    7.011631E-03	    1.958837E-02	   -1.000000E+00	    1.000000E-03	    1.600000E-03	    8.010000E+02	
    1.150331E-02	    5.754046E-03	    1.606875E-02	   -1.000000E+00	    1.000000E-03	    1.600000E-03	    8.010000E+02	
    1.181934E-02	    4.583352E-03	    1.279357E-02	   -1.000000E+00	    1.000000E-03	    1.600000E-03	    8.010000E+02	
    1.199744E-02	    3.545608E-03	    9.891627E-03	   -1.000000E+00	    1.000000E-03	    1.600000E-03	    8.010000E+02	
    1.207673E-02	    2.666100E-03	    7.433292E-03	   -1.000000E+00	    1.000000E-03	    1.600000E-03	    8.010000E+02	
    1.209376E-02	    1.950679E-03	    5.434392E-03	   -1.000000E+00	    1.000000E-03	    1.600000E-03	    8.010000E+02	
    1.207752E-02	    1.390306E-03	    3.868951E-03	   -1.000000E+00	    1.000000E-03	    1.600000E-03	    8.010000E+02	
    1.204793E-02	    9.665363E-04	    2.684533E-03	   -1.000000E+00	    1.000000E-03	    1.600000E-03	    8.010000E+02	
    1.201677E-02	    6.564691E-04	    1.816051E-03	   -1.000000E+00	    1.000000E-03	    1.600000E-03	    8.010000E+02	
    1.198975E-02	    4.365224E-04	    1.196249E-03	   -1.000000E+00	    1.000000E-03	    1.600000E-03	    8.010000E+02	
    1.196875E-02	    2.849407E-04	    7.625219E-04	   -1.000000E+00	    1.000000E-03	    1.600000E-03	    8.010000E+02	
    1.195355E-02	    1.831848E-04	    4.604133E-04	   -1.000000E+00	    1.000000E-03	    1.600000E-03	    8.010000E+02	
    1.194310E-02	    1.164398E-04	    2.443874E-04	   -1.000000E+00	    1.000000E-03	    1.600000E-03	    8.010000E+02	
    1.193617E-02	    7.350093E-05	    7.653035E-05	   -1.000000E+00	    1.000000E-03	    1.600000E-03	    8.010000E+02	
    1.193369E-02	    5.833001E-05	    0.000000E+00	    0.000000E+00	    1.000000E-03	    1.000000E-03	    1.000000E+03	
   -1.193233E-02	    5.853665E-05	    0.000000E+00	    0.000000E+00	    1.000000E-03	    1.000000E-03	    1.000000E+03	
   -1.193446E-02	    7.375914E-05	    1.464214E-04	   -1.000000E+00	    1.000000E-03	    1.600000E-03	    8.010000E+02	
   -1.194039E-02	    1.168391E-04	    4.676067E-04	   -1.000000E+00	    1.000000E-03	    1.600000E-03	    8.010000E+02	
   -1.194929E-02	    1.837891E-04	    8.808616E-04	   -1.000000E+00	    1.000000E-03	    1.600000E-03	    8.010000E+02	
   -1.196211E-02	    2.858241E-04	    1.458584E-03	   -1.000000E+00	    1.000000E-03	    1.600000E-03	    8.010000E+02	
   -1.197958E-02	    4.377467E-04	    2.287567E-03	   -1.000000E+00	    1.000000E-03	    1.600000E-03	    8.010000E+02	
   -1.200143E-02	    6.580288E-04	    3.471308E-03	   -1.000000E+00	    1.000000E-03	    1.600000E-03	    8.010000E+02	
   -1.202531E-02	    9.682493E-04	    5.128239E-03	   -1.000000E+00	    1.000000E-03	    1.600000E-03	    8.010000E+02	
   -1.204493E-02	    1.391625E-03	    7.384636E-03	   -1.000000E+00	    1.000000E-03	    1.600000E-03	    8.010000E+02	
   -1.204802E-02	    1.950408E-03	    1.036110E-02	   -1.000000E+00	    1.000000E-03	    1.600000E-03	    8.010000E+02	
   -1.201439E-02	    2.662037E-03	    1.415216E-02	   -1.000000E+00	    1.000000E-03	    1.600000E-03	    8.010000E+02	
   -1.191522E-02	    3.534187E-03	    1.879990E-02	   -1.000000E+00	    1.000000E-03	    1.600000E-03	    8.010000E+02	
   -1.171485E-02	    4.559443E-03	    2.426561E-02	   -1.000000E+00	    1.000000E-03	    1.600000E-03	    8.010000E+02	
   -1.137592E-02	    5.711134E-03	    3.040747E-02	   -1.000000E+00	    1.000000E-03	    1.600000E-03	    8.010000E+02	
   -1.086781E-02	    6.942538E-03	    3.697618E-02	   -1.000000E+00	    1.000000E-03	    1.600000E-03	    8.010000E+02	
   -1.017591E-02	    8.191410E-03	    4.363901E-02	   -1.000000E+00	    1.000000E-03	    1.600000E-03	    8.010000E+02	
   -9.308264E-03	    9.389873E-03	    5.003272E-02	   -1.000000E+00	    1.000000E-03	    1.600000E-03	    8.010000E+02	
   -8.296073E-03	    1.047696E-02	    5.583092E-02	   -1.000000E+00	    1.000000E-03	    1.600000E-03	    8.010000E+02	
   -7.187525E-03	    1.140925E-02	    6.080134E-02	   -1.000000E+00	    1.000000E-03	    1.600000E-03	    8.010000E+02	
   -6.037464E-03	    1.216595E-02	    6.483305E-02	   -1.000000E+00	    1.000000E-03	    1.600000E-03	    8.010000E+02	
   -4.897173E-03	    1.274756E-02	    6.792930E-02	   -1.000000E+00	    1.000000E-03	    1.600000E-03	    8.010000E+02	
   -3.807459E-03	    1.317022E-02	    7.017691E-02	   -1.000000E+00	    1.000000E-03	    1.600000E-03	    8.010000E+02	
   -2.796000E-03	    1.345869E-02	    7.170861E-02	   -1.000000E+00	    1.000000E-03	    1.600000E-03	    8.010000E+02	
   -1.878051E-03	    1.364031E-02	    7.267063E-02	   -1.000000E+00	    1.000000E-03	    1.600000E-03	    8.010000E+02	
   -1.058953E-03	    1.374094E-02	    7.320104E-02	   -1.000000E+00	    1.000000E-03	    1.600000E-03	    8.010000E+02	
   -3.371165E-04	    1.378285E-02	    7.341849E-02	   -1.000000E+00	    1.000000E-03	    1.600000E-03	    8.010000E+02	
    3.371165E-04	    1.378285E-02	    7.341849E-02	   -1.000000E+00	    1.000000E-03	    1.600000E-03	    8.010000E+02	
    1.058953E-03	    1.374094E-02	    7.320104E-02	   -1.000000E+00	    1.000000E-03	    1.600000E-03	    8.010000E+02	
    1.878051E-03	    1.364031E-02	    7.267063E-02	   -1.000000E+00	    1.000000E-03	    1.600000E-03	    8.010000E+02	
    2.796000E-03	    1.345869E-02	    7.170861E-02	   -1.000000E+00	    1.000000E-03	    1.600000E-03	    8.010000E+02	
    3.807459E-03	    1.317022E-02	    7.017691E-02	   -1.000000E+00	    1.000000E-03	    1.600000E-03	    8.010000E+02	
    4.897173E-03	    1.274756E-02	    6.792930E-02	   -1.000000E+00	    1.000000E-03	    1.600000E-03	    8.010000E+02	
    6.037464E-03	    1.216595E-02	    6.483305E-02	   -1.000000E+00	    1.000000E-03	    1.600000E-03	    8.010000E+02	
    7.187525E-03	    1.140925E-02	    6.080134E-02	   -1.000000E+00	    1.000000E-03	    1.600000E-03	    8.010000E+02	
    8.296073E-03	    1.047696E-02	    5.583092E-02	   -1.000000E+00	    1.000000E-03	    1.600000E-03	    8.010000E+02	
    9.308264E-03	    9.389873E-03	    5.003272E-02	   -1.000000E+00	    1.000000E-03	    1.600000E-03	    8.010000E+02	
    1.017591E-02	    8.191410E-03	    4.363901E-02	   -1.000000E+00	    1.000000E-03	    1.600000E-03	    8.010000E+02	
    1.086781E-02	    6.942538E-03	    3.697618E-02	   -1.000000E+00	    1.000000E-03	    1.600000E-03	    8.010000E+02	
    1.137592E-02	    5.711134E-03	    3.040747E-02	   -1.000000E+00	    1.000000E-03	    1.600000E-03	    8.010000E+02	
    1.171485E-02	    4.559443E-03	    2.426561E-02	   -1.000000E+00	    1.000000E-03	    1.600000E-03	    8.010000E+02	
    1.191522E-02	    3.534187E-03	    1.879990E-02	   -1.000000E+00	    1.000000E-03	    1.600000E-03	    8.010000E+02	
    1.201439E-02	    2.662037E-03	    1.415216E-02	   -1.000000E+00	    1.000000E-03	    1.600000E-03	    8.010000E+02	
    1.204802E-02	    1.950408E-03	    1.036110E-02	   -1.000000E+00	    1.000000E-03	    1.600000E-03	    8.010000E+02	
    1.204493E-02	    1.391625E-03	    7.384636E-03	   -1.000000E+00	    1.000000E-03	    1.600000E-03	    8.010000E+02	
    1.202531E-02	    9.682493E-04	    5.128239E-03	   -1.000000E+00	    1.000000E-03	    1.600000E-03	    8.010000E+02	
    1.200143E-02	    6.580288E-04	    3.471308E-03	   -1.000000E+00	    1.000000E-03	    1.600000E-03	    8.010000E+02	
    1.197958E-02	    4.377467E-04	    2.287567E-03	   -1.000000E+00	    1.000000E-03	    1.600000E-03	    8.010000E+02	
    1.196211E-02	    2.858241E-04	    1.458584E-03	   -1.000000E+00	    1.000000E-03	    1.600000E-03	    8.010000E+02	
    1.194929E-02	    1.837891E-04	    8.808616E-04	   -1.000000E+00	    1.000000E-03	    1.600000E-03	    8.010000E+02	
    1.194039E-02	    1.168391E-04	    4.676067E-04	   -1.000000E+00	    1.000000E-03	    1.600000E-03	    8.010000E+02	
    1.193446E-02	    7.375914E-05	    1.464214E-04	   -1.000000E+00	    1.000000E-03	    1.600000E-03	    8.010000E+02	
    1.193233E-02	    5.853665E-05	    0.000000E+00	    0.000000E+00	    1.000000E-03	    1.000000E-03	    1.000000E+03	
   -1.193057E-02	    5.875819E-05	    0.000000E+00	    0.000000E+00	    1.000000E-03	    1.000000E-03	    1.000000E+03	
   -1.193224E-02	    7.403545E-05	    2.370763E-04	   -1.000000E+00	    1.000000E-03	    1.600000E-03	    8.010000E+02	
   -1.193686E-02	    1.172640E-04	    7.571795E-04	   -1.000000E+00	    1.000000E-03	    1.600000E-03	    8.010000E+02	
   -1.194373E-02	    1.844263E-04	    1.426172E-03	   -1.000000E+00	    1.000000E-03	    1.600000E-03	    8.010000E+02	
   -1.195347E-02	    2.867410E-04	    2.360982E-03	   -1.000000E+00	    1.000000E-03	    1.600000E-03	    8.010000E+02	
   -1.196632E-02	    4.389824E-04	    3.701464E-03	   -1.000000E+00	    1.000000E-03	    1.600000E-03	    8.010000E+02	
   -1.198149E-02	    6.595192E-04	    5.613768E-03	   -1.000000E+00	    1.000000E-03	    1.600000E-03	    8.010000E+02	
   -1.199592E-02	    9.696825E-04	    8.286900E-03	   -1.000000E+00	    1.000000E-03	    1.600000E-03	    8.010000E+02	
   -1.200267E-02	    1.392197E-03	    1.192042E-02	   -1.000000E+00	    1.000000E-03	    1.600000E-03	    8.010000E+02	
   -1.198886E-02	    1.948465E-03	    1.670167E-02	   -1.000000E+00	    1.000000E-03	    1.600000E-03	    8.010000E+02	
   -1.193402E-02	    2.654630E-03	    2.277204E-02	   -1.000000E+00	    1.000000E-03	    1.600000E-03	    8.010000E+02	
   -1.180963E-02	    3.516645E-03	    3.018469E-02	   -1.000000E+00	    1.000000E-03	    1.600000E-03	    8.010000E+02	
   -1.158126E-02	    4.525179E-03	    3.886060E-02	   -1.000000E+00	    1.000000E-03	    1.600000E-03	    8.010000E+02	
   -1.121390E-02	    5.651934E-03	    4.855682E-02	   -1.000000E+00	    1.000000E-03	    1.600000E-03	    8.010000E+02	
   -1.068022E-02	    6.849540E-03	    5.886529E-02	   -1.000000E+00	    1.000000E-03	    1.600000E-03	    8.010000E+02	
   -9.969314E-03	    8.056666E-03	    6.925682E-02	   -1.000000E+00	    1.000000E-03	    1.600000E-03	    8.010000E+02	
   -9.092271E-03	    9.208063E-03	    7.916780E-02	   -1.000000E+00	    1.000000E-03	    1.600000E-03	    8.010000E+02	
   -8.081856E-03	    1.024657E-02	    8.810442E-02	   -1.000000E+00	    1.000000E-03	    1.600000E-03	    8.010000E+02	
   -6.985881E-03	    1.113278E-02	    9.572656E-02	   -1.000000E+00	    1.000000E-03	    1.600000E-03	    8.010000E+02	
   -5.857186E-03	    1.184910E-02	    1.018830E-01	   -1.000000E+00	    1.000000E-03	    1.600000E-03	    8.010000E+02	
   -4.744171E-03	    1.239787E-02	    1.065951E-01	   -1.000000E+00	    1.000000E-03	    1.600000E-03	    8.010000E+02	
   -3.684686E-03	    1.279568E-02	    1.100069E-01	   -1.000000E+00	    1.000000E-03	    1.600000E-03	    8.010000E+02	
   -2.703932E-03	    1.306672E-02	    1.123277E-01	   -1.000000E+00	    1.000000E-03	    1.600000E-03	    8.010000E+02	
   -1.815403E-03	    1.323716E-02	    1.137834E-01	   -1.000000E+00	    1.000000E-03	    1.600000E-03	    8.010000E+02	
   -1.023377E-03	    1.333154E-02	    1.145853E-01	   -1.000000E+00	    1.000000E-03	    1.600000E-03	    8.010000E+02	
   -3.257575E-04	    1.337083E-02	    1.149138E-01	   -1.000000E+00	    1.000000E-03	    1.600000E-03	    8.010000E+02	
    3.257575E-04	    1.337083E-02	    1.149138E-01	   -1.000000E+00	    1.000000E-03	    1.600000E-03	    8.010000E+02	
    1.023377E-03	    1.333154E-02	    1.145853E-01	   -1.000000E+00	    1.000000E-03	    1.600000E-03	    8.010000E+02	
    1.815403E-03	    1.323716E-02	    1.137834E-01	   -1.000000E+00	    1.000000E-03	    1.600000E-03	    8.010000E+02	
    2.703932E-03	    1.306672E-02	    1.123277E-01	   -1.000000E+00	    1.000000E-03	    1.600000E-03	    8.010000E+02	
    3.684686E-03	    1.279568E-02	    1.100069E-01	   -1.000000E+00	    1.000000E-03	    1.600000E-03	    8.010000E+02	
    4.744171E-03	    1.239787E-02	    1.065951E-01	   -1.000000E+00	    1.000000E-03	    1.600000E-03	    8.010000E+02	
    5.857186E-03	    1.184910E-02	    1.018830E-01	   -1.000000E+00	    1.000000E-03	    1.600000E-03	    8.010000E+02	
    6.985881E-03	    1.113278E-02	    9.572656E-02	   -1.000000E+00	    1.000000E-03	    1.600000E-03	    8.010000E+02	
    8.081856E-03	    1.024657E-02	    8.810442E-02	   -1.000000E+00	    1.000000E-03	    1.600000E-03	    8.010000E+02	
    9.092271E-03	    9.208063E-03	    7.916780E-02	   -1.000000E+00	    1.000000E-03	    1.600000E-03	    8.010000E+02	
    9.969314E-03	    8.056666E-03	    6.925682E-02	   -1.000000E+00	    1.000000E-03	    1.600000E-03	    8.010000E+02	
    1.068022E-02	    6.849540E-03	    5.886529E-02	   -1.000000E+00	    1.000000E-03	    1.600000E-03	    8.010000E+02	
    1.121390E-02	    5.651934E-03	    4.855682E-02	   -1.000000E+00	    1.000000E-03	    1.600000E-03	    8.010000E+02	
    1.158126E-02	    4.525179E-03	    3.886060E-02	   -1.000000E+00	    1.000000E-03	    1.600000E-03	    8.010000E+02	
    1.180963E-02	    3.516645E-03	    3.018469E-02	   -1.000000E+00	    1.000000E-03	    1.600000E-03	    8.010000E+02	