Title="Fields"
Variables="X""Y""Velocity""Phi""Effective Viscosity""Dynamic Viscosity""Density"
Zone I=52 J=52 F=POINT
   -1.129090E-02	    5.192144E-05	    0.000000E+00	    0.000000E+00	    1.000000E-03	    1.000000E-03	    1.000000E+03	
   -1.129626E-02	    6.544304E-05	    0.000000E+00	    0.000000E+00	    1.000000E-03	    1.000000E-03	    1.000000E+03	
   -1.131136E-02	    1.037529E-04	    0.000000E+00	    0.000000E+00	    1.000000E-03	    1.000000E-03	    1.000000E+03	
   -1.133458E-02	    1.634176E-04	    0.000000E+00	    0.000000E+00	    1.000000E-03	    1.000000E-03	    1.000000E+03	
   -1.136938E-02	    2.546498E-04	    0.000000E+00	    0.000000E+00	    1.000000E-03	    1.000000E-03	    1.000000E+03	
   -1.141990E-02	    3.911644E-04	    0.000000E+00	    0.000000E+00	    1.000000E-03	    1.000000E-03	    1.000000E+03	
   -1.149037E-02	    5.905565E-04	    0.000000E+00	    0.000000E+00	    1.000000E-03	    1.000000E-03	    1.000000E+03	
   -1.158400E-02	    8.743097E-04	    0.000000E+00	    0.000000E+00	    1.000000E-03	    1.000000E-03	    1.000000E+03	
   -1.170107E-02	    1.267241E-03	    0.000000E+00	    0.000000E+00	    1.000000E-03	    1.000000E-03	    1.000000E+03	
   -1.183624E-02	    1.796137E-03	    0.000000E+00	    0.000000E+00	    1.000000E-03	    1.000000E-03	    1.000000E+03	
   -1.197543E-02	    2.487248E-03	    0.000000E+00	    0.000000E+00	    1.000000E-03	    1.000000E-03	    1.000000E+03	
   -1.209284E-02	    3.362259E-03	    0.000000E+00	    0.000000E+00	    1.000000E-03	    1.000000E-03	    1.000000E+03	
   -1.214953E-02	    4.432517E-03	    0.000000E+00	    0.000000E+00	    1.000000E-03	    1.000000E-03	    1.000000E+03	
   -1.209521E-02	    5.692001E-03	    0.000000E+00	    0.000000E+00	    1.000000E-03	    1.000000E-03	    1.000000E+03	
   -1.187480E-02	    7.110793E-03	    0.000000E+00	    0.000000E+00	    1.000000E-03	    1.000000E-03	    1.000000E+03	
   -1.143992E-02	    8.632245E-03	    0.000000E+00	    0.000000E+00	    1.000000E-03	    1.000000E-03	    1.000000E+03	
   -1.076279E-02	    1.017728E-02	    0.000000E+00	    0.000000E+00	    1.000000E-03	    1.000000E-03	    1.000000E+03	
   -9.847044E-03	    1.165693E-02	    0.000000E+00	    0.000000E+00	    1.000000E-03	    1.000000E-03	    1.000000E+03	
   -8.729974E-03	    1.298992E-02	    0.000000E+00	    0.000000E+00	    1.000000E-03	    1.000000E-03	    1.000000E+03	
   -7.474424E-03	    1.411838E-02	    0.000000E+00	    0.000000E+00	    1.000000E-03	    1.000000E-03	    1.000000E+03	
   -6.153885E-03	    1.501574E-02	    0.000000E+00	    0.000000E+00	    1.000000E-03	    1.000000E-03	    1.000000E+03	
   -4.837380E-03	    1.568497E-02	    0.000000E+00	    0.000000E+00	    1.000000E-03	    1.000000E-03	    1.000000E+03	
   -3.579306E-03	    1.615029E-02	    0.000000E+00	    0.000000E+00	    1.000000E-03	    1.000000E-03	    1.000000E+03	
   -2.415745E-03	    1.644689E-02	    0.000000E+00	    0.000000E+00	    1.000000E-03	    1.000000E-03	    1.000000E+03	
   -1.365773E-03	    1.661246E-02	    0.000000E+00	    0.000000E+00	    1.000000E-03	    1.000000E-03	    1.000000E+03	
   -4.352762E-04	    1.668167E-02	    0.000000E+00	    0.000000E+00	    1.000000E-03	    1.000000E-03	    1.000000E+03	
    4.352762E-04	    1.668167E-02	    0.000000E+00	    0.000000E+00	    1.000000E-03	    1.000000E-03	    1.000000E+03	
    1.365773E-03	    1.661246E-02	    0.000000E+00	    0.000000E+00	    1.000000E-03	    1.000000E-03	    1.000000E+03	
    2.415745E-03	    1.644689E-02	    0.000000E+00	    0.000000E+00	    1.000000E-03	    1.000000E-03	    1.000000E+03	
    3.579306E-03	    1.615029E-02	    0.000000E+00	    0.000000E+00	    1.000000E-03	    1.000000E-03	    1.000000E+03	
    4.837380E-03	    1.568497E-02	    0.000000E+00	    0.000000E+00	    1.000000E-03	    1.000000E-03	    1.000000E+03	
    6.153885E-03	    1.501574E-02	    0.000000E+00	    0.000000E+00	    1.000000E-03	    1.000000E-03	    1.000000E+03	
    7.474424E-03	    1.411838E-02	    0.000000E+00	    0.000000E+00	    1.000000E-03	    1.000000E-03	    1.000000E+03	
    8.729974E-03	    1.298992E-02	    0.000000E+00	    0.000000E+00	    1.000000E-03	    1.000000E-03	    1.000000E+03	
    9.847044E-03	    1.165693E-02	    0.000000E+00	    0.000000E+00	    1.000000E-03	    1.000000E-03	    1.000000E+03	
    1.076279E-02	    1.017728E-02	    0.000000E+00	    0.000000E+00	    1.000000E-03	    1.000000E-03	    1.000000E+03	
    1.143992E-02	    8.632245E-03	    0.000000E+00	    0.000000E+00	    1.000000E-03	    1.000000E-03	    1.000000E+03	
    1.187480E-02	    7.110793E-03	    0.000000E+00	    0.000000E+00	    1.000000E-03	    1.000000E-03	    1.000000E+03	
    1.209521E-02	    5.692001E-03	    0.000000E+00	    0.000000E+00	    1.000000E-03	    1.000000E-03	    1.000000E+03	
    1.214953E-02	    4.432517E-03	    0.000000E+00	    0.000000E+00	    1.000000E-03	    1.000000E-03	    1.000000E+03	
    1.209284E-02	    3.362259E-03	    0.000000E+00	    0.000000E+00	    1.000000E-03	    1.000000E-03	    1.000000E+03	
    1.197543E-02	    2.487248E-03	    0.000000E+00	    0.000000E+00	    1.000000E-03	    1.000000E-03	    1.000000E+03	
    1.183624E-02	    1.796137E-03	    0.000000E+00	    0.000000E+00	    1.000000E-03	    1.000000E-03	    1.000000E+03	
    1.170107E-02	    1.267241E-03	    0.000000E+00	    0.000000E+00	    1.000000E-03	    1.000000E-03	    1.000000E+03	
    1.158400E-02	    8.743097E-04	    0.000000E+00	    0.000000E+00	    1.000000E-03	    1.000000E-03	    1.000000E+03	
    1.149037E-02	    5.905565E-04	    0.000000E+00	    0.000000E+00	    1.000000E-03	    1.000000E-03	    1.000000E+03	
    1.141990E-02	    3.911644E-04	    0.000000E+00	    0.000000E+00	    1.000000E-03	    1.000000E-03	    1.000000E+03	
    1.136938E-02	    2.546498E-04	    0.000000E+00	    0.000000E+00	    1.000000E-03	    1.000000E-03	    1.000000E+03	
    1.133458E-02	    1.634176E-04	    0.000000E+00	    0.000000E+00	    1.000000E-03	    1.000000E-03	    1.000000E+03	
    1.131136E-02	    1.037529E-04	    0.000000E+00	    0.000000E+00	    1.000000E-03	    1.000000E-03	    1.000000E+03	
    1.129626E-02	    6.544304E-05	    0.000000E+00	    0.000000E+00	    1.000000E-03	    1.000000E-03	    1.000000E+03	
    1.129090E-02	    5.192144E-05	    0.000000E+00	    0.000000E+00	    1.000000E-03	    1.000000E-03	    1.000000E+03	
   -1.129046E-02	    5.209455E-05	    0.000000E+00	    0.000000E+00	    1.000000E-03	    1.000000E-03	    1.000000E+03	
   -1.129571E-02	    6.566056E-05	    4.040494E-05	   -1.000000E+00	    1.000000E-03	    1.600000E-03	    8.010000E+02	
   -1.131048E-02	    1.040947E-04	    1.290892E-04	   -1.000000E+00	    1.000000E-03	    1.600000E-03	    8.010000E+02	
   -1.133318E-02	    1.639487E-04	    2.434290E-04	   -1.000000E+00	    1.000000E-03	    1.600000E-03	    8.010000E+02	
   -1.136720E-02	    2.554599E-04	    4.037998E-04	   -1.000000E+00	    1.000000E-03	    1.600000E-03	    8.010000E+02	
   -1.141654E-02	    3.923684E-04	    6.350479E-04	   -1.000000E+00	    1.000000E-03	    1.600000E-03	    8.010000E+02	
   -1.148527E-02	    5.922854E-04	    9.676173E-04	   -1.000000E+00	    1.000000E-03	    1.600000E-03	    8.010000E+02	
   -1.157639E-02	    8.766823E-04	    1.437884E-03	   -1.000000E+00	    1.000000E-03	    1.600000E-03	    8.010000E+02	
   -1.168993E-02	    1.270305E-03	    2.087416E-03	   -1.000000E+00	    1.000000E-03	    1.600000E-03	    8.010000E+02	
   -1.182027E-02	    1.799764E-03	    2.960803E-03	   -1.000000E+00	    1.000000E-03	    1.600000E-03	    8.010000E+02	
   -1.195306E-02	    2.490977E-03	    4.101540E-03	   -1.000000E+00	    1.000000E-03	    1.600000E-03	    8.010000E+02	
   -1.206233E-02	    3.365089E-03	    5.545389E-03	   -1.000000E+00	    1.000000E-03	    1.600000E-03	    8.010000E+02	
   -1.210915E-02	    4.432688E-03	    7.310897E-03	   -1.000000E+00	    1.000000E-03	    1.600000E-03	    8.010000E+02	
   -1.204364E-02	    5.686851E-03	    9.387844E-03	   -1.000000E+00	    1.000000E-03	    1.600000E-03	    8.010000E+02	
   -1.181162E-02	    7.096817E-03	    1.172653E-02	   -1.000000E+00	    1.000000E-03	    1.600000E-03	    8.010000E+02	
   -1.136611E-02	    8.605483E-03	    1.423315E-02	   -1.000000E+00	    1.000000E-03	    1.600000E-03	    8.010000E+02	
   -1.068102E-02	    1.013402E-02	    1.677700E-02	   -1.000000E+00	    1.000000E-03	    1.600000E-03	    8.010000E+02	
   -9.761446E-03	    1.159458E-02	    1.921130E-02	   -1.000000E+00	    1.000000E-03	    1.600000E-03	    8.010000E+02	
   -8.645493E-03	    1.290761E-02	    2.140226E-02	   -1.000000E+00	    1.000000E-03	    1.600000E-03	    8.010000E+02	
   -7.395875E-03	    1.401713E-02	    2.325509E-02	   -1.000000E+00	    1.000000E-03	    1.600000E-03	    8.010000E+02	
   -6.085149E-03	    1.489811E-02	    2.472673E-02	   -1.000000E+00	    1.000000E-03	    1.600000E-03	    8.010000E+02	
   -4.780969E-03	    1.555436E-02	    2.582281E-02	   -1.000000E+00	    1.000000E-03	    1.600000E-03	    8.010000E+02	
   -3.536343E-03	    1.601026E-02	    2.658368E-02	   -1.000000E+00	    1.000000E-03	    1.600000E-03	    8.010000E+02	
   -2.386222E-03	    1.630069E-02	    2.706756E-02	   -1.000000E+00	    1.000000E-03	    1.600000E-03	    8.010000E+02	
   -1.348916E-03	    1.646277E-02	    2.733647E-02	   -1.000000E+00	    1.000000E-03	    1.600000E-03	    8.010000E+02	
   -4.298817E-04	    1.653050E-02	    2.744730E-02	   -1.000000E+00	    1.000000E-03	    1.600000E-03	    8.010000E+02	
    4.298817E-04	    1.653050E-02	    2.744730E-02	   -1.000000E+00	    1.000000E-03	    1.600000E-03	    8.010000E+02	
    1.348916E-03	    1.646277E-02	    2.733647E-02	   -1.000000E+00	    1.000000E-03	    1.600000E-03	    8.010000E+02	
    2.386222E-03	    1.630069E-02	    2.706756E-02	   -1.000000E+00	    1.000000E-03	    1.600000E-03	    8.010000E+02	
    3.536343E-03	    1.601026E-02	    2.658368E-02	   -1.000000E+00	    1.000000E-03	    1.600000E-03	    8.010000E+02	
    4.780969E-03	    1.555436E-02	    2.582281E-02	   -1.000000E+00	    1.000000E-03	    1.600000E-03	    8.010000E+02	
    6.085149E-03	    1.489811E-02	    2.472673E-02	   -1.000000E+00	    1.000000E-03	    1.600000E-03	    8.010000E+02	
    7.395875E-03	    1.401713E-02	    2.325509E-02	   -1.000000E+00	    1.000000E-03	    1.600000E-03	    8.010000E+02	
    8.645493E-03	    1.290761E-02	    2.140226E-02	   -1.000000E+00	    1.000000E-03	    1.600000E-03	    8.010000E+02	
    9.761446E-03	    1.159458E-02	    1.921130E-02	   -1.000000E+00	    1.000000E-03	    1.600000E-03	    8.010000E+02	
    1.068102E-02	    1.013402E-02	    1.677700E-02	   -1.000000E+00	    1.000000E-03	    1.600000E-03	    8.010000E+02	
    1.136611E-02	    8.605483E-03	    1.423315E-02	   -1.000000E+00	    1.000000E-03	    1.600000E-03	    8.010000E+02	
    1.181162E-02	    7.096817E-03	    1.172653E-02	   -1.000000E+00	    1.000000E-03	    1.600000E-03	    8.010000E+02	
    1.204364E-02	    5.686851E-03	    9.387844E-03	   -1.000000E+00	    1.000000E-03	    1.600000E-03	    8.010000E+02	
    1.210915E-02	    4.432688E-03	    7.310897E-03	   -1.000000E+00	    1.000000E-03	    1.600000E-03	    8.010000E+02	
    1.206233E-02	    3.365089E-03	    5.545389E-03	   -1.000000E+00	    1.000000E-03	    1.600000E-03	    8.010000E+02	
    1.195306E-02	    2.490977E-03	    4.101540E-03	   -1.000000E+00	    1.000000E-03	    1.600000E-03	    8.010000E+02	
    1.182027E-02	    1.799764E-03	    2.960803E-03	   -1.000000E+00	    1.000000E-03	    1.600000E-03	    8.010000E+02	
    1.168993E-02	    1.270305E-03	    2.087416E-03	   -1.000000E+00	    1.000000E-03	    1.600000E-03	    8.010000E+02	
    1.157639E-02	    8.766823E-04	    1.437884E-03	   -1.000000E+00	    1.000000E-03	    1.600000E-03	    8.010000E+02	
    1.148527E-02	    5.922854E-04	    9.676173E-04	   -1.000000E+00	    1.000000E-03	    1.600000E-03	    8.010000E+02	
    1.141654E-02	    3.923684E-04	    6.350479E-04	   -1.000000E+00	    1.000000E-03	    1.600000E-03	    8.010000E+02	
    1.136720E-02	    2.554599E-04	    4.037998E-04	   -1.000000E+00	    1.000000E-03	    1.600000E-03	    8.010000E+02	
    1.133318E-02	    1.639487E-04	    2.434290E-04	   -1.000000E+00	    1.000000E-03	    1.600000E-03	    8.010000E+02	
    1.131048E-02	    1.040947E-04	    1.290892E-04	   -1.000000E+00	    1.000000E-03	    1.600000E-03	    8.010000E+02	
    1.129571E-02	    6.566056E-05	    4.040494E-05	   -1.000000E+00	    1.000000E-03	    1.600000E-03	    8.010000E+02	
    1.129046E-02	    5.209455E-05	    0.000000E+00	    0.000000E+00	    1.000000E-03	    1.000000E-03	    1.000000E+03	
   -1.128943E-02	    5.248077E-05	    0.000000E+00	    0.000000E+00	    1.000000E-03	    1.000000E-03	    1.000000E+03	
   -1.129441E-02	    6.614579E-05	    1.338546E-04	   -1.000000E+00	    1.000000E-03	    1.600000E-03	    8.010000E+02	
   -1.130843E-02	    1.048570E-04	    4.276818E-04	   -1.000000E+00	    1.000000E-03	    1.600000E-03	    8.010000E+02	
   -1.132994E-02	    1.651320E-04	    8.064235E-04	   -1.000000E+00	    1.000000E-03	    1.600000E-03	    8.010000E+02	
   -1.136214E-02	    2.572625E-04	    1.337458E-03	   -1.000000E+00	    1.000000E-03	    1.600000E-03	    8.010000E+02	
   -1.140873E-02	    3.950429E-04	    2.102805E-03	   -1.000000E+00	    1.000000E-03	    1.600000E-03	    8.010000E+02	
   -1.147341E-02	    5.961148E-04	    3.202696E-03	   -1.000000E+00	    1.000000E-03	    1.600000E-03	    8.010000E+02	
   -1.155871E-02	    8.819133E-04	    4.756390E-03	   -1.000000E+00	    1.000000E-03	    1.600000E-03	    8.010000E+02	
   -1.166408E-02	    1.277009E-03	    6.899289E-03	   -1.000000E+00	    1.000000E-03	    1.600000E-03	    8.010000E+02	
   -1.178327E-02	    1.807596E-03	    9.775130E-03	   -1.000000E+00	    1.000000E-03	    1.600000E-03	    8.010000E+02	
   -1.190134E-02	    2.498814E-03	    1.352167E-02	   -1.000000E+00	    1.000000E-03	    1.600000E-03	    8.010000E+02	
   -1.199192E-02	    3.370558E-03	    1.824817E-02	   -1.000000E+00	    1.000000E-03	    1.600000E-03	    8.010000E+02	
   -1.201623E-02	    4.431686E-03	    2.400415E-02	   -1.000000E+00	    1.000000E-03	    1.600000E-03	    8.010000E+02	
   -1.192533E-02	    5.673246E-03	    3.074263E-02	   -1.000000E+00	    1.000000E-03	    1.600000E-03	    8.010000E+02	
   -1.166716E-02	    7.062637E-03	    3.828807E-02	   -1.000000E+00	    1.000000E-03	    1.600000E-03	    8.010000E+02	
   -1.119799E-02	    8.541830E-03	    4.632606E-02	   -1.000000E+00	    1.000000E-03	    1.600000E-03	    8.010000E+02	
   -1.049546E-02	    1.003270E-02	    5.443171E-02	   -1.000000E+00	    1.000000E-03	    1.600000E-03	    8.010000E+02	
   -9.567905E-03	    1.144999E-02	    6.213987E-02	   -1.000000E+00	    1.000000E-03	    1.600000E-03	    8.010000E+02	
   -8.455094E-03	    1.271809E-02	    6.903726E-02	   -1.000000E+00	    1.000000E-03	    1.600000E-03	    8.010000E+02	
   -7.219330E-03	    1.378523E-02	    7.484051E-02	   -1.000000E+00	    1.000000E-03	    1.600000E-03	    8.010000E+02	
   -5.930994E-03	    1.462968E-02	    7.943052E-02	   -1.000000E+00	    1.000000E-03	    1.600000E-03	    8.010000E+02	
   -4.654658E-03	    1.525708E-02	    8.283795E-02	   -1.000000E+00	    1.000000E-03	    1.600000E-03	    8.010000E+02	
   -3.440250E-03	    1.569211E-02	    8.519761E-02	   -1.000000E+00	    1.000000E-03	    1.600000E-03	    8.010000E+02	
   -2.320238E-03	    1.596891E-02	    8.669570E-02	   -1.000000E+00	    1.000000E-03	    1.600000E-03	    8.010000E+02	
   -1.311255E-03	    1.612325E-02	    8.752724E-02	   -1.000000E+00	    1.000000E-03	    1.600000E-03	    8.010000E+02	
   -4.178317E-04	    1.618773E-02	    8.786949E-02	   -1.000000E+00	    1.000000E-03	    1.600000E-03	    8.010000E+02	
    4.178317E-04	    1.618773E-02	    8.786949E-02	   -1.000000E+00	    1.000000E-03	    1.600000E-03	    8.010000E+02	
    1.311255E-03	    1.612325E-02	    8.752724E-02	   -1.000000E+00	    1.000000E-03	    1.600000E-03	    8.010000E+02	
    2.320238E-03	    1.596891E-02	    8.669570E-02	   -1.000000E+00	    1.000000E-03	    1.600000E-03	    8.010000E+02	
    3.440250E-03	    1.569211E-02	    8.519761E-02	   -1.000000E+00	    1.000000E-03	    1.600000E-03	    8.010000E+02	
    4.654658E-03	    1.525708E-02	    8.283795E-02	   -1.000000E+00	    1.000000E-03	    1.600000E-03	    8.010000E+02	
    5.930994E-03	    1.462968E-02	    7.943052E-02	   -1.000000E+00	    1.000000E-03	    1.600000E-03	    8.010000E+02	
    7.219330E-03	    1.378523E-02	    7.484051E-02	   -1.000000E+00	    1.000000E-03	    1.600000E-03	    8.010000E+02	
    8.455094E-03	    1.271809E-02	    6.903726E-02	   -1.000000E+00	    1.000000E-03	    1.600000E-03	    8.010000E+02	
    9.567905E-03	    1.144999E-02	    6.213987E-02	   -1.000000E+00	    1.000000E-03	    1.600000E-03	    8.010000E+02	
    1.049546E-02	    1.003270E-02	    5.443171E-02	   -1.000000E+00	    1.000000E-03	    1.600000E-03	    8.010000E+02	
    1.119799E-02	    8.541830E-03	    4.632606E-02	   -1.000000E+00	    1.000000E-03	    1.600000E-03	    8.010000E+02	
    1.166716E-02	    7.062637E-03	    3.828807E-02	   -1.000000E+00	    1.000000E-03	    1.600000E-03	    8.010000E+02	
    1.192533E-02	    5.673246E-03	    3.074263E-02	   -1.000000E+00	    1.000000E-03	    1.600000E-03	    8.010000E+02	
    1.201623E-02	    4.431686E-03	    2.400415E-02	   -1.000000E+00	    1.000000E-03	    1.600000E-03	    8.010000E+02	
    1.199192E-02	    3.370558E-03	    1.824817E-02	   -1.000000E+00	    1.000000E-03	    1.600000E-03	    8.010000E+02	
    1.190134E-02	    2.498814E-03	    1.352167E-02	   -1.000000E+00	    1.000000E-03	    1.600000E-03	    8.010000E+02	
    1.178327E-02	    1.807596E-03	    9.775130E-03	   -1.000000E+00	    1.000000E-03	    1.600000E-03	    8.010000E+02	
    1.166408E-02	    1.277009E-03	    6.899289E-03	   -1.000000E+00	    1.000000E-03	    1.600000E-03	    8.010000E+02	
    1.155871E-02	    8.819133E-04	    4.756390E-03	   -1.000000E+00	    1.000000E-03	    1.600000E-03	    8.010000E+02	
    1.147341E-02	    5.961148E-04	    3.202696E-03	   -1.000000E+00	    1.000000E-03	    1.600000E-03	    8.010000E+02	
    1.140873E-02	    3.950429E-04	    2.102805E-03	   -1.000000E+00	    1.000000E-03	    1.600000E-03	    8.010000E+02	
    1.136214E-02	    2.572625E-04	    1.337458E-03	   -1.000000E+00	    1.000000E-03	    1.600000E-03	    8.010000E+02	
    1.132994E-02	    1.651320E-04	    8.064235E-04	   -1.000000E+00	    1.000000E-03	    1.600000E-03	    8.010000E+02	
    1.130843E-02	    1.048570E-04	    4.276818E-04	   -1.000000E+00	    1.000000E-03	    1.600000E-03	    8.010000E+02	
    1.129441E-02	    6.614579E-05	    1.338546E-04	   -1.000000E+00	    1.000000E-03	    1.600000E-03	    8.010000E+02	
    1.128943E-02	    5.248077E-05	    0.000000E+00	    0.000000E+00	    1.000000E-03	    1.000000E-03	    1.000000E+03	
   -1.128808E-02	    5.295593E-05	    0.000000E+00	    0.000000E+00	    1.000000E-03	    1.000000E-03	    1.000000E+03	
   -1.129271E-02	    6.674259E-05	    2.560770E-04	   -1.000000E+00	    1.000000E-03	    1.600000E-03	    8.010000E+02	
   -1.130571E-02	    1.057937E-04	    8.182570E-04	   -1.000000E+00	    1.000000E-03	    1.600000E-03	    8.010000E+02	
   -1.132567E-02	    1.665842E-04	    1.542721E-03	   -1.000000E+00	    1.000000E-03	    1.600000E-03	    8.010000E+02	
   -1.135546E-02	    2.594703E-04	    2.558105E-03	   -1.000000E+00	    1.000000E-03	    1.600000E-03	    8.010000E+02	
   -1.139843E-02	    3.983077E-04	    4.020703E-03	   -1.000000E+00	    1.000000E-03	    1.600000E-03	    8.010000E+02	
   -1.145779E-02	    6.007654E-04	    6.120937E-03	   -1.000000E+00	    1.000000E-03	    1.600000E-03	    8.010000E+02	
   -1.153545E-02	    8.882138E-04	    9.084317E-03	   -1.000000E+00	    1.000000E-03	    1.600000E-03	    8.010000E+02	
   -1.163011E-02	    1.284973E-03	    1.316501E-02	   -1.000000E+00	    1.000000E-03	    1.600000E-03	    8.010000E+02	
   -1.173477E-02	    1.816672E-03	    1.862965E-02	   -1.000000E+00	    1.000000E-03	    1.600000E-03	    8.010000E+02	
   -1.183372E-02	    2.507414E-03	    2.572862E-02	   -1.000000E+00	    1.000000E-03	    1.600000E-03	    8.010000E+02	
   -1.190020E-02	    3.375467E-03	    3.465201E-02	   -1.000000E+00	    1.000000E-03	    1.600000E-03	    8.010000E+02	
   -1.189568E-02	    4.427479E-03	    4.547042E-02	   -1.000000E+00	    1.000000E-03	    1.600000E-03	    8.010000E+02	
   -1.177260E-02	    5.651976E-03	    5.806808E-02	   -1.000000E+00	    1.000000E-03	    1.600000E-03	    8.010000E+02	
   -1.148173E-02	    7.014159E-03	    7.208873E-02	   -1.000000E+00	    1.000000E-03	    1.600000E-03	    8.010000E+02	
   -1.098346E-02	    8.455053E-03	    8.692588E-02	   -1.000000E+00	    1.000000E-03	    1.600000E-03	    8.010000E+02	
   -1.026007E-02	    9.897685E-03	    1.017855E-01	   -1.000000E+00	    1.000000E-03	    1.600000E-03	    8.010000E+02	
   -9.323784E-03	    1.126022E-02	    1.158218E-01	   -1.000000E+00	    1.000000E-03	    1.600000E-03	    8.010000E+02	
   -8.216149E-03	    1.247206E-02	    1.283039E-01	   -1.000000E+00	    1.000000E-03	    1.600000E-03	    8.010000E+02	
   -6.998712E-03	    1.348658E-02	    1.387492E-01	   -1.000000E+00	    1.000000E-03	    1.600000E-03	    8.010000E+02	
   -5.739003E-03	    1.428599E-02	    1.469741E-01	   -1.000000E+00	    1.000000E-03	    1.600000E-03	    8.010000E+02	
   -4.497740E-03	    1.487799E-02	    1.530590E-01	   -1.000000E+00	    1.000000E-03	    1.600000E-03	    8.010000E+02	
   -3.321080E-03	    1.528752E-02	    1.572620E-01	   -1.000000E+00	    1.000000E-03	    1.600000E-03	    8.010000E+02	
   -2.238497E-03	    1.554768E-02	    1.599257E-01	   -1.000000E+00	    1.000000E-03	    1.600000E-03	    8.010000E+02	
   -1.264630E-03	    1.569261E-02	    1.614024E-01	   -1.000000E+00	    1.000000E-03	    1.600000E-03	    8.010000E+02	
   -4.029171E-04	    1.575313E-02	    1.620095E-01	   -1.000000E+00	    1.000000E-03	    1.600000E-03	    8.010000E+02	
    4.029171E-04	    1.575313E-02	    1.620095E-01	   -1.000000E+00	    1.000000E-03	    1.600000E-03	    8.010000E+02	
    1.264630E-03	    1.569261E-02	    1.614024E-01	   -1.000000E+00	    1.000000E-03	    1.600000E-03	    8.010000E+02	
    2.238497E-03	    1.554768E-02	    1.599257E-01	   -1.000000E+00	    1.000000E-03	    1.600000E-03	    8.010000E+02	
    3.321080E-03	    1.528752E-02	    1.572620E-01	   -1.000000E+00	    1.000000E-03	    1.600000E-03	    8.010000E+02	
    4.497740E-03	    1.487799E-02	    1.530590E-01	   -1.000000E+00	    1.000000E-03	    1.600000E-03	    8.010000E+02	
    5.739003E-03	    1.428599E-02	    1.469741E-01	   -1.000000E+00	    1.000000E-03	    1.600000E-03	    8.010000E+02	
    6.998712E-03	    1.348658E-02	    1.387492E-01	   -1.000000E+00	    1.000000E-03	    1.600000E-03	    8.010000E+02	
    8.216149E-03	    1.247206E-02	    1.283039E-01	   -1.000000E+00	    1.000000E-03	    1.600000E-03	    8.010000E+02	
    9.323784E-03	    1.126022E-02	    1.158218E-01	   -1.000000E+00	    1.000000E-03	    1.600000E-03	    8.010000E+02	
    1.026007E-02	    9.897685E-03	    1.017855E-01	   -1.000000E+00	    1.000000E-03	    1.600000E-03	    8.010000E+02	
    1.098346E-02	    8.455053E-03	    8.692588E-02	   -1.000000E+00	    1.000000E-03	    1.600000E-03	    8.010000E+02	
    1.148173E-02	    7.014159E-03	    7.208873E-02	   -1.000000E+00	    1.000000E-03	    1.600000E-03	    8.010000E+02	
    1.177260E-02	    5.651976E-03	    5.806808E-02	   -1.000000E+00	    1.000000E-03	    1.600000E-03	    8.010000E+02	
    1.189568E-02	    4.427479E-03	    4.547042E-02	   -1.000000E+00	    1.000000E-03	    1.600000E-03	    8.010000E+02	
    1.190020E-02	    3.375467E-03	    3.465201E-02	   -1.000000E+00	    1.000000E-03	    1.600000E-03	    8.010000E+02	
    1.183372E-02	    2.507414E-03	    2.572862E-02	   -1.000000E+00	    1.000000E-03	    1.600000E-03	    8.010000E+02	
    1.173477E-02	    1.816672E-03	    1.862965E-02	   -1.000000E+00	    1.000000E-03	    1.600000E-03	    8.010000E+02	
    1.163011E-02	    1.284973E-03	    1.316501E-02	   -1.000000E+00	    1.000000E-03	    1.600000E-03	    8.010000E+02	
    1.153545E-02	    8.882138E-04	    9.084317E-03	   -1.000000E+00	    1.000000E-03	    1.600000E-03	    8.010000E+02	
    1.145779E-02	    6.007654E-04	    6.120937E-03	   -1.000000E+00	    1.000000E-03	    1.600000E-03	    8.010000E+02	
    1.139843E-02	    3.983077E-04	    4.020703E-03	   -1.000000E+00	    1.000000E-03	    1.600000E-03	    8.010000E+02	
    1.135546E-02	    2.594703E-04	    2.558105E-03	   -1.000000E+00	    1.000000E-03	    1.600000E-03	    8.010000E+02	
    1.132567E-02	    1.665842E-04	    1.542721E-03	   -1.000000E+00	    1.000000E-03	    1.600000E-03	    8.010000E+02	
    1.130571E-02	    1.057937E-04	    8.182570E-04	   -1.000000E+00	    1.000000E-03	    1.600000E-03	    8.010000E+02	
    1.129271E-02	    6.674259E-05	    2.560770E-04	   -1.000000E+00	    1.000000E-03	    1.600000E-03	    8.010000E+02	
    1.128808E-02	    5.295593E-05	    0.000000E+00	    0.000000E+00	    1.000000E-03	    1.000000E-03	    1.000000E+03	
   -1.128630E-02	    5.352118E-05	    0.000000E+00	    0.000000E+00	    1.000000E-03	    1.000000E-03	    1.000000E+03	
   -1.129046E-02	    6.745224E-05	    4.145577E-04	   -1.000000E+00	    1.000000E-03	    1.600000E-03	    8.010000E+02	
   -1.130216E-02	    1.069061E-04	    1.324764E-03	   -1.000000E+00	    1.000000E-03	    1.600000E-03	    8.010000E+02	
   -1.132006E-02	    1.683054E-04	    2.497345E-03	   -1.000000E+00	    1.000000E-03	    1.600000E-03	    8.010000E+02	
   -1.134670E-02	    2.620789E-04	    4.139990E-03	   -1.000000E+00	    1.000000E-03	    1.600000E-03	    8.010000E+02	
   -1.138494E-02	    4.021461E-04	    6.504433E-03	   -1.000000E+00	    1.000000E-03	    1.600000E-03	    8.010000E+02	
   -1.143735E-02	    6.061902E-04	    9.896190E-03	   -1.000000E+00	    1.000000E-03	    1.600000E-03	    8.010000E+02	
   -1.150505E-02	    8.954699E-04	    1.467490E-02	   -1.000000E+00	    1.000000E-03	    1.600000E-03	    8.010000E+02	
   -1.158583E-02	    1.293947E-03	    2.124203E-02	   -1.000000E+00	    1.000000E-03	    1.600000E-03	    8.010000E+02	
   -1.167169E-02	    1.826481E-03	    3.001229E-02	   -1.000000E+00	    1.000000E-03	    1.600000E-03	    8.010000E+02	
   -1.174611E-02	    2.515811E-03	    4.136448E-02	   -1.000000E+00	    1.000000E-03	    1.600000E-03	    8.010000E+02	
   -1.178190E-02	    3.378113E-03	    5.556880E-02	   -1.000000E+00	    1.000000E-03	    1.600000E-03	    8.010000E+02	
   -1.174104E-02	    4.417263E-03	    7.269263E-02	   -1.000000E+00	    1.000000E-03	    1.600000E-03	    8.010000E+02	
   -1.157794E-02	    5.618734E-03	    9.249980E-02	   -1.000000E+00	    1.000000E-03	    1.600000E-03	    8.010000E+02	
   -1.124705E-02	    6.945226E-03	    1.143776E-01	   -1.000000E+00	    1.000000E-03	    1.600000E-03	    8.010000E+02	
   -1.071398E-02	    8.336955E-03	    1.373402E-01	   -1.000000E+00	    1.000000E-03	    1.600000E-03	    8.010000E+02	
   -9.966618E-03	    9.718751E-03	    1.601442E-01	   -1.000000E+00	    1.000000E-03	    1.600000E-03	    8.010000E+02	
   -9.021587E-03	    1.101329E-02	    1.815086E-01	   -1.000000E+00	    1.000000E-03	    1.600000E-03	    8.010000E+02	
   -7.922218E-03	    1.215615E-02	    2.003648E-01	   -1.000000E+00	    1.000000E-03	    1.600000E-03	    8.010000E+02	
   -6.728754E-03	    1.310683E-02	    2.160416E-01	   -1.000000E+00	    1.000000E-03	    1.600000E-03	    8.010000E+02	
   -5.505048E-03	    1.385206E-02	    2.283203E-01	   -1.000000E+00	    1.000000E-03	    1.600000E-03	    8.010000E+02	
   -4.307110E-03	    1.440176E-02	    2.373668E-01	   -1.000000E+00	    1.000000E-03	    1.600000E-03	    8.010000E+02	
   -3.176615E-03	    1.478094E-02	    2.435969E-01	   -1.000000E+00	    1.000000E-03	    1.600000E-03	    8.010000E+02	
   -2.139540E-03	    1.502135E-02	    2.475369E-01	   -1.000000E+00	    1.000000E-03	    1.600000E-03	    8.010000E+02	
   -1.208227E-03	    1.515513E-02	    2.497180E-01	   -1.000000E+00	    1.000000E-03	    1.600000E-03	    8.010000E+02	
   -3.848806E-04	    1.521096E-02	    2.506137E-01	   -1.000000E+00	    1.000000E-03	    1.600000E-03	    8.010000E+02	
    3.848806E-04	    1.521096E-02	    2.506137E-01	   -1.000000E+00	    1.000000E-03	    1.600000E-03	    8.010000E+02	
    1.208227E-03	    1.515513E-02	    2.497180E-01	   -1.000000E+00	    1.000000E-03	    1.600000E-03	    8.010000E+02	
    2.139540E-03	    1.502135E-02	    2.475369E-01	   -1.000000E+00	    1.000000E-03	    1.600000E-03	    8.010000E+02	
    3.176615E-03	    1.478094E-02	    2.435969E-01	   -1.000000E+00	    1.000000E-03	    1.600000E-03	    8.010000E+02	
    4.307110E-03	    1.440176E-02	    2.373668E-01	   -1.000000E+00	    1.000000E-03	    1.600000E-03	    8.010000E+02	
    5.505048E-03	    1.385206E-02	    2.283203E-01	   -1.000000E+00	    1.000000E-03	    1.600000E-03	    8.010000E+02	
    6.728754E-03	    1.310683E-02	    2.160416E-01	   -1.000000E+00	    1.000000E-03	    1.600000E-03	    8.010000E+02	
    7.922218E-03	    1.215615E-02	    2.003648E-01	   -1.000000E+00	    1.000000E-03	    1.600000E-03	    8.010000E+02	
    9.021587E-03	    1.101329E-02	    1.815086E-01	   -1.000000E+00	    1.000000E-03	    1.600000E-03	    8.010000E+02	
    9.966618E-03	    9.718751E-03	    1.601442E-01	   -1.000000E+00	    1.000000E-03	    1.600000E-03	    8.010000E+02	
    1.071398E-02	    8.336955E-03	    1.373402E-01	   -1.000000E+00	    1.000000E-03	    1.600000E-03	    8.010000E+02	
    1.124705E-02	    6.945226E-03	    1.143776E-01	   -1.000000E+00	    1.000000E-03	    1.600000E-03	    8.010000E+02	
    1.157794E-02	    5.618734E-03	    9.249980E-02	   -1.000000E+00	    1.000000E-03	    1.600000E-03	    8.010000E+02	
    1.174104E-02	    4.417263E-03	    7.269263E-02	   -1.000000E+00	    1.000000E-03	    1.600000E-03	    8.010000E+02	
    1.178190E-02	    3.378113E-03	    5.556880E-02	   -1.000000E+00	    1.000000E-03	    1.600000E-03	    8.010000E+02	